<?xml version="1.0" encoding="ISO-8859-1"?>
<modeling>
 <generator>
  <i name="program" type="string">vasp </i>
  <i name="version" type="string">5.4.4.18Apr17-6-g9f103f2a35  </i>
  <i name="subversion" type="string">(build Mar 28 2018 22:45:43) complex            parallel </i>
  <i name="platform" type="string">IFC91_ompi </i>
  <i name="date" type="string">2018 08 31 </i>
  <i name="time" type="string">17:25:58 </i>
 </generator>
 <incar>
  <i type="int" name="ISTART">     0</i>
  <i type="string" name="PREC">accurate</i>
  <i type="string" name="ALGO"> Fast     ! Davidson x NELMDL, RMMS</i>
  <i type="int" name="ICHARG">    11</i>
  <i type="int" name="NELM">   120</i>
  <i type="int" name="IBRION">    -1</i>
  <i name="EDIFF">      0.00000100</i>
  <i type="int" name="NSW">     0</i>
  <i type="int" name="ISIF">     2</i>
  <i name="ENCUT">    520.00000000</i>
  <i type="int" name="NBANDS">    32</i>
  <i type="string" name="LREAL"> Auto</i>
  <i type="logical" name="LPLANE"> T  </i>
  <i type="int" name="ISMEAR">     0</i>
  <i name="SIGMA">      0.05000000</i>
  <i type="int" name="LMAXMIX">     4</i>
  <i type="logical" name="LWAVE"> F  </i>
  <i type="int" name="LORBIT">    11</i>
  <v type="int" name="KPOINT_BSE">    -1     0     0     0</v>
  <i type="int" name="NELM">   120</i>
 </incar>
 <structure name="primitive_cell" >
  <crystal>
   <varray name="basis" >
    <v>       3.16347217       0.00000000       0.00000000 </v>
    <v>      -1.58173609       2.73964659       0.00000000 </v>
    <v>       0.00000000       0.00000000      12.29995042 </v>
   </varray>
   <i name="volume">    106.60115792 </i>
   <varray name="rec_basis" >
    <v>       0.31610836       0.18250529       0.00000000 </v>
    <v>       0.00000000       0.36501058       0.00000000 </v>
    <v>       0.00000000       0.00000000       0.08130114 </v>
   </varray>
  </crystal>
  <varray name="positions" >
   <v>      -0.33333300       0.33333300      -0.25000000 </v>
   <v>       0.33333300      -0.33333300      -0.12312256 </v>
   <v>       0.33333300      -0.33333300      -0.37687744 </v>
   <v>      -0.33333300       0.33333300       0.37687744 </v>
   <v>      -0.33333300       0.33333300       0.12312256 </v>
   <v>       0.33333300      -0.33333300       0.25000000 </v>
  </varray>
 </structure>
 <varray name="primitive_index" >
  <v type="int" >        1 </v>
  <v type="int" >        3 </v>
  <v type="int" >        5 </v>
  <v type="int" >        4 </v>
  <v type="int" >        6 </v>
  <v type="int" >        2 </v>
 </varray>
 <kpoints>
  <generation param="listgenerated">
   <i name="divisions" type="int">      20 </i>
   <v>       0.00000000       0.00000000       0.00000000 </v>
   <v>       0.50000000       0.00000000       0.00000000 </v>
   <v>       0.33333333       0.33333333       0.00000000 </v>
   <v>       0.00000000       0.00000000       0.00000000 </v>
   <v>       0.00000000       0.00000000       0.50000000 </v>
   <v>       0.50000000       0.00000000       0.50000000 </v>
   <v>       0.33333333       0.33333333       0.50000000 </v>
   <v>       0.50000000       0.00000000       0.50000000 </v>
   <v>       0.33333333       0.33333333       0.00000000 </v>
   <v>       0.33333333       0.33333333       0.50000000 </v>
  </generation>
  <varray name="kpointlist" >
   <v>       0.00000000       0.00000000       0.00000000 </v>
   <v>       0.02631579       0.00000000       0.00000000 </v>
   <v>       0.05263158       0.00000000       0.00000000 </v>
   <v>       0.07894737       0.00000000       0.00000000 </v>
   <v>       0.10526316       0.00000000       0.00000000 </v>
   <v>       0.13157895       0.00000000       0.00000000 </v>
   <v>       0.15789474       0.00000000       0.00000000 </v>
   <v>       0.18421053       0.00000000       0.00000000 </v>
   <v>       0.21052632       0.00000000       0.00000000 </v>
   <v>       0.23684211       0.00000000       0.00000000 </v>
   <v>       0.26315789       0.00000000       0.00000000 </v>
   <v>       0.28947368       0.00000000       0.00000000 </v>
   <v>       0.31578947       0.00000000       0.00000000 </v>
   <v>       0.34210526       0.00000000       0.00000000 </v>
   <v>       0.36842105       0.00000000       0.00000000 </v>
   <v>       0.39473684       0.00000000       0.00000000 </v>
   <v>       0.42105263       0.00000000       0.00000000 </v>
   <v>       0.44736842       0.00000000       0.00000000 </v>
   <v>       0.47368421       0.00000000       0.00000000 </v>
   <v>       0.50000000       0.00000000       0.00000000 </v>
   <v>       0.50000000       0.00000000       0.00000000 </v>
   <v>       0.49122807       0.01754386       0.00000000 </v>
   <v>       0.48245614       0.03508772       0.00000000 </v>
   <v>       0.47368421       0.05263158       0.00000000 </v>
   <v>       0.46491228       0.07017544       0.00000000 </v>
   <v>       0.45614035       0.08771930       0.00000000 </v>
   <v>       0.44736842       0.10526316       0.00000000 </v>
   <v>       0.43859649       0.12280702       0.00000000 </v>
   <v>       0.42982456       0.14035088       0.00000000 </v>
   <v>       0.42105263       0.15789474       0.00000000 </v>
   <v>       0.41228070       0.17543860       0.00000000 </v>
   <v>       0.40350877       0.19298246       0.00000000 </v>
   <v>       0.39473684       0.21052632       0.00000000 </v>
   <v>       0.38596491       0.22807018       0.00000000 </v>
   <v>       0.37719298       0.24561404       0.00000000 </v>
   <v>       0.36842105       0.26315789       0.00000000 </v>
   <v>       0.35964912       0.28070175       0.00000000 </v>
   <v>       0.35087719       0.29824561       0.00000000 </v>
   <v>       0.34210526       0.31578947       0.00000000 </v>
   <v>       0.33333333       0.33333333       0.00000000 </v>
   <v>       0.33333333       0.33333333       0.00000000 </v>
   <v>       0.31578947       0.31578947       0.00000000 </v>
   <v>       0.29824561       0.29824561       0.00000000 </v>
   <v>       0.28070175       0.28070175       0.00000000 </v>
   <v>       0.26315789       0.26315789       0.00000000 </v>
   <v>       0.24561404       0.24561404       0.00000000 </v>
   <v>       0.22807018       0.22807018       0.00000000 </v>
   <v>       0.21052632       0.21052632       0.00000000 </v>
   <v>       0.19298246       0.19298246       0.00000000 </v>
   <v>       0.17543860       0.17543860       0.00000000 </v>
   <v>       0.15789474       0.15789474       0.00000000 </v>
   <v>       0.14035088       0.14035088       0.00000000 </v>
   <v>       0.12280702       0.12280702       0.00000000 </v>
   <v>       0.10526316       0.10526316       0.00000000 </v>
   <v>       0.08771930       0.08771930       0.00000000 </v>
   <v>       0.07017544       0.07017544       0.00000000 </v>
   <v>       0.05263158       0.05263158       0.00000000 </v>
   <v>       0.03508772       0.03508772       0.00000000 </v>
   <v>       0.01754386       0.01754386       0.00000000 </v>
   <v>       0.00000000       0.00000000       0.00000000 </v>
   <v>       0.00000000       0.00000000       0.00000000 </v>
   <v>       0.00000000       0.00000000       0.02631579 </v>
   <v>       0.00000000       0.00000000       0.05263158 </v>
   <v>       0.00000000       0.00000000       0.07894737 </v>
   <v>       0.00000000       0.00000000       0.10526316 </v>
   <v>       0.00000000       0.00000000       0.13157895 </v>
   <v>       0.00000000       0.00000000       0.15789474 </v>
   <v>       0.00000000       0.00000000       0.18421053 </v>
   <v>       0.00000000       0.00000000       0.21052632 </v>
   <v>       0.00000000       0.00000000       0.23684211 </v>
   <v>       0.00000000       0.00000000       0.26315789 </v>
   <v>       0.00000000       0.00000000       0.28947368 </v>
   <v>       0.00000000       0.00000000       0.31578947 </v>
   <v>       0.00000000       0.00000000       0.34210526 </v>
   <v>       0.00000000       0.00000000       0.36842105 </v>
   <v>       0.00000000       0.00000000       0.39473684 </v>
   <v>       0.00000000       0.00000000       0.42105263 </v>
   <v>       0.00000000       0.00000000       0.44736842 </v>
   <v>       0.00000000       0.00000000       0.47368421 </v>
   <v>       0.00000000       0.00000000       0.50000000 </v>
   <v>       0.00000000       0.00000000       0.50000000 </v>
   <v>       0.02631579       0.00000000       0.50000000 </v>
   <v>       0.05263158       0.00000000       0.50000000 </v>
   <v>       0.07894737       0.00000000       0.50000000 </v>
   <v>       0.10526316       0.00000000       0.50000000 </v>
   <v>       0.13157895       0.00000000       0.50000000 </v>
   <v>       0.15789474       0.00000000       0.50000000 </v>
   <v>       0.18421053       0.00000000       0.50000000 </v>
   <v>       0.21052632       0.00000000       0.50000000 </v>
   <v>       0.23684211       0.00000000       0.50000000 </v>
   <v>       0.26315789       0.00000000       0.50000000 </v>
   <v>       0.28947368       0.00000000       0.50000000 </v>
   <v>       0.31578947       0.00000000       0.50000000 </v>
   <v>       0.34210526       0.00000000       0.50000000 </v>
   <v>       0.36842105       0.00000000       0.50000000 </v>
   <v>       0.39473684       0.00000000       0.50000000 </v>
   <v>       0.42105263       0.00000000       0.50000000 </v>
   <v>       0.44736842       0.00000000       0.50000000 </v>
   <v>       0.47368421       0.00000000       0.50000000 </v>
   <v>       0.50000000       0.00000000       0.50000000 </v>
   <v>       0.50000000       0.00000000       0.50000000 </v>
   <v>       0.49122807       0.01754386       0.50000000 </v>
   <v>       0.48245614       0.03508772       0.50000000 </v>
   <v>       0.47368421       0.05263158       0.50000000 </v>
   <v>       0.46491228       0.07017544       0.50000000 </v>
   <v>       0.45614035       0.08771930       0.50000000 </v>
   <v>       0.44736842       0.10526316       0.50000000 </v>
   <v>       0.43859649       0.12280702       0.50000000 </v>
   <v>       0.42982456       0.14035088       0.50000000 </v>
   <v>       0.42105263       0.15789474       0.50000000 </v>
   <v>       0.41228070       0.17543860       0.50000000 </v>
   <v>       0.40350877       0.19298246       0.50000000 </v>
   <v>       0.39473684       0.21052632       0.50000000 </v>
   <v>       0.38596491       0.22807018       0.50000000 </v>
   <v>       0.37719298       0.24561404       0.50000000 </v>
   <v>       0.36842105       0.26315789       0.50000000 </v>
   <v>       0.35964912       0.28070175       0.50000000 </v>
   <v>       0.35087719       0.29824561       0.50000000 </v>
   <v>       0.34210526       0.31578947       0.50000000 </v>
   <v>       0.33333333       0.33333333       0.50000000 </v>
   <v>       0.33333333       0.33333333       0.50000000 </v>
   <v>       0.31578947       0.31578947       0.50000000 </v>
   <v>       0.29824561       0.29824561       0.50000000 </v>
   <v>       0.28070175       0.28070175       0.50000000 </v>
   <v>       0.26315789       0.26315789       0.50000000 </v>
   <v>       0.24561404       0.24561404       0.50000000 </v>
   <v>       0.22807018       0.22807018       0.50000000 </v>
   <v>       0.21052632       0.21052632       0.50000000 </v>
   <v>       0.19298246       0.19298246       0.50000000 </v>
   <v>       0.17543860       0.17543860       0.50000000 </v>
   <v>       0.15789474       0.15789474       0.50000000 </v>
   <v>       0.14035088       0.14035088       0.50000000 </v>
   <v>       0.12280702       0.12280702       0.50000000 </v>
   <v>       0.10526316       0.10526316       0.50000000 </v>
   <v>       0.08771930       0.08771930       0.50000000 </v>
   <v>       0.07017544       0.07017544       0.50000000 </v>
   <v>       0.05263158       0.05263158       0.50000000 </v>
   <v>       0.03508772       0.03508772       0.50000000 </v>
   <v>       0.01754386       0.01754386       0.50000000 </v>
   <v>       0.00000000       0.00000000       0.50000000 </v>
   <v>       0.50000000       0.00000000       0.50000000 </v>
   <v>       0.50000000       0.00000000       0.47368421 </v>
   <v>       0.50000000       0.00000000       0.44736842 </v>
   <v>       0.50000000       0.00000000       0.42105263 </v>
   <v>       0.50000000       0.00000000       0.39473684 </v>
   <v>       0.50000000       0.00000000       0.36842105 </v>
   <v>       0.50000000       0.00000000       0.34210526 </v>
   <v>       0.50000000       0.00000000       0.31578947 </v>
   <v>       0.50000000       0.00000000       0.28947368 </v>
   <v>       0.50000000       0.00000000       0.26315789 </v>
   <v>       0.50000000       0.00000000       0.23684211 </v>
   <v>       0.50000000       0.00000000       0.21052632 </v>
   <v>       0.50000000       0.00000000       0.18421053 </v>
   <v>       0.50000000       0.00000000       0.15789474 </v>
   <v>       0.50000000       0.00000000       0.13157895 </v>
   <v>       0.50000000       0.00000000       0.10526316 </v>
   <v>       0.50000000       0.00000000       0.07894737 </v>
   <v>       0.50000000       0.00000000       0.05263158 </v>
   <v>       0.50000000       0.00000000       0.02631579 </v>
   <v>       0.50000000       0.00000000       0.00000000 </v>
   <v>       0.33333333       0.33333333       0.00000000 </v>
   <v>       0.33333333       0.33333333       0.02631579 </v>
   <v>       0.33333333       0.33333333       0.05263158 </v>
   <v>       0.33333333       0.33333333       0.07894737 </v>
   <v>       0.33333333       0.33333333       0.10526316 </v>
   <v>       0.33333333       0.33333333       0.13157895 </v>
   <v>       0.33333333       0.33333333       0.15789474 </v>
   <v>       0.33333333       0.33333333       0.18421053 </v>
   <v>       0.33333333       0.33333333       0.21052632 </v>
   <v>       0.33333333       0.33333333       0.23684211 </v>
   <v>       0.33333333       0.33333333       0.26315789 </v>
   <v>       0.33333333       0.33333333       0.28947368 </v>
   <v>       0.33333333       0.33333333       0.31578947 </v>
   <v>       0.33333333       0.33333333       0.34210526 </v>
   <v>       0.33333333       0.33333333       0.36842105 </v>
   <v>       0.33333333       0.33333333       0.39473684 </v>
   <v>       0.33333333       0.33333333       0.42105263 </v>
   <v>       0.33333333       0.33333333       0.44736842 </v>
   <v>       0.33333333       0.33333333       0.47368421 </v>
   <v>       0.33333333       0.33333333       0.50000000 </v>
  </varray>
  <varray name="weights" >
   <v>       0.00555556 </v>
   <v>       0.00555556 </v>
   <v>       0.00555556 </v>
   <v>       0.00555556 </v>
   <v>       0.00555556 </v>
   <v>       0.00555556 </v>
   <v>       0.00555556 </v>
   <v>       0.00555556 </v>
   <v>       0.00555556 </v>
   <v>       0.00555556 </v>
   <v>       0.00555556 </v>
   <v>       0.00555556 </v>
   <v>       0.00555556 </v>
   <v>       0.00555556 </v>
   <v>       0.00555556 </v>
   <v>       0.00555556 </v>
   <v>       0.00555556 </v>
   <v>       0.00555556 </v>
   <v>       0.00555556 </v>
   <v>       0.00555556 </v>
   <v>       0.00555556 </v>
   <v>       0.00555556 </v>
   <v>       0.00555556 </v>
   <v>       0.00555556 </v>
   <v>       0.00555556 </v>
   <v>       0.00555556 </v>
   <v>       0.00555556 </v>
   <v>       0.00555556 </v>
   <v>       0.00555556 </v>
   <v>       0.00555556 </v>
   <v>       0.00555556 </v>
   <v>       0.00555556 </v>
   <v>       0.00555556 </v>
   <v>       0.00555556 </v>
   <v>       0.00555556 </v>
   <v>       0.00555556 </v>
   <v>       0.00555556 </v>
   <v>       0.00555556 </v>
   <v>       0.00555556 </v>
   <v>       0.00555556 </v>
   <v>       0.00555556 </v>
   <v>       0.00555556 </v>
   <v>       0.00555556 </v>
   <v>       0.00555556 </v>
   <v>       0.00555556 </v>
   <v>       0.00555556 </v>
   <v>       0.00555556 </v>
   <v>       0.00555556 </v>
   <v>       0.00555556 </v>
   <v>       0.00555556 </v>
   <v>       0.00555556 </v>
   <v>       0.00555556 </v>
   <v>       0.00555556 </v>
   <v>       0.00555556 </v>
   <v>       0.00555556 </v>
   <v>       0.00555556 </v>
   <v>       0.00555556 </v>
   <v>       0.00555556 </v>
   <v>       0.00555556 </v>
   <v>       0.00555556 </v>
   <v>       0.00555556 </v>
   <v>       0.00555556 </v>
   <v>       0.00555556 </v>
   <v>       0.00555556 </v>
   <v>       0.00555556 </v>
   <v>       0.00555556 </v>
   <v>       0.00555556 </v>
   <v>       0.00555556 </v>
   <v>       0.00555556 </v>
   <v>       0.00555556 </v>
   <v>       0.00555556 </v>
   <v>       0.00555556 </v>
   <v>       0.00555556 </v>
   <v>       0.00555556 </v>
   <v>       0.00555556 </v>
   <v>       0.00555556 </v>
   <v>       0.00555556 </v>
   <v>       0.00555556 </v>
   <v>       0.00555556 </v>
   <v>       0.00555556 </v>
   <v>       0.00555556 </v>
   <v>       0.00555556 </v>
   <v>       0.00555556 </v>
   <v>       0.00555556 </v>
   <v>       0.00555556 </v>
   <v>       0.00555556 </v>
   <v>       0.00555556 </v>
   <v>       0.00555556 </v>
   <v>       0.00555556 </v>
   <v>       0.00555556 </v>
   <v>       0.00555556 </v>
   <v>       0.00555556 </v>
   <v>       0.00555556 </v>
   <v>       0.00555556 </v>
   <v>       0.00555556 </v>
   <v>       0.00555556 </v>
   <v>       0.00555556 </v>
   <v>       0.00555556 </v>
   <v>       0.00555556 </v>
   <v>       0.00555556 </v>
   <v>       0.00555556 </v>
   <v>       0.00555556 </v>
   <v>       0.00555556 </v>
   <v>       0.00555556 </v>
   <v>       0.00555556 </v>
   <v>       0.00555556 </v>
   <v>       0.00555556 </v>
   <v>       0.00555556 </v>
   <v>       0.00555556 </v>
   <v>       0.00555556 </v>
   <v>       0.00555556 </v>
   <v>       0.00555556 </v>
   <v>       0.00555556 </v>
   <v>       0.00555556 </v>
   <v>       0.00555556 </v>
   <v>       0.00555556 </v>
   <v>       0.00555556 </v>
   <v>       0.00555556 </v>
   <v>       0.00555556 </v>
   <v>       0.00555556 </v>
   <v>       0.00555556 </v>
   <v>       0.00555556 </v>
   <v>       0.00555556 </v>
   <v>       0.00555556 </v>
   <v>       0.00555556 </v>
   <v>       0.00555556 </v>
   <v>       0.00555556 </v>
   <v>       0.00555556 </v>
   <v>       0.00555556 </v>
   <v>       0.00555556 </v>
   <v>       0.00555556 </v>
   <v>       0.00555556 </v>
   <v>       0.00555556 </v>
   <v>       0.00555556 </v>
   <v>       0.00555556 </v>
   <v>       0.00555556 </v>
   <v>       0.00555556 </v>
   <v>       0.00555556 </v>
   <v>       0.00555556 </v>
   <v>       0.00555556 </v>
   <v>       0.00555556 </v>
   <v>       0.00555556 </v>
   <v>       0.00555556 </v>
   <v>       0.00555556 </v>
   <v>       0.00555556 </v>
   <v>       0.00555556 </v>
   <v>       0.00555556 </v>
   <v>       0.00555556 </v>
   <v>       0.00555556 </v>
   <v>       0.00555556 </v>
   <v>       0.00555556 </v>
   <v>       0.00555556 </v>
   <v>       0.00555556 </v>
   <v>       0.00555556 </v>
   <v>       0.00555556 </v>
   <v>       0.00555556 </v>
   <v>       0.00555556 </v>
   <v>       0.00555556 </v>
   <v>       0.00555556 </v>
   <v>       0.00555556 </v>
   <v>       0.00555556 </v>
   <v>       0.00555556 </v>
   <v>       0.00555556 </v>
   <v>       0.00555556 </v>
   <v>       0.00555556 </v>
   <v>       0.00555556 </v>
   <v>       0.00555556 </v>
   <v>       0.00555556 </v>
   <v>       0.00555556 </v>
   <v>       0.00555556 </v>
   <v>       0.00555556 </v>
   <v>       0.00555556 </v>
   <v>       0.00555556 </v>
   <v>       0.00555556 </v>
   <v>       0.00555556 </v>
   <v>       0.00555556 </v>
   <v>       0.00555556 </v>
   <v>       0.00555556 </v>
   <v>       0.00555556 </v>
   <v>       0.00555556 </v>
  </varray>
 </kpoints>
 <parameters>
  <separator name="general" >
   <i type="string" name="SYSTEM">unknown system</i>
   <i type="logical" name="LCOMPAT"> F  </i>
  </separator>
  <separator name="electronic" >
   <i type="string" name="PREC">accura</i>
   <i name="ENMAX">    520.00000000</i>
   <i name="ENAUG">    392.42700000</i>
   <i name="EDIFF">      0.00000100</i>
   <i type="int" name="IALGO">    68</i>
   <i type="int" name="IWAVPR">    10</i>
   <i type="int" name="NBANDS">    32</i>
   <i name="NELECT">     48.00000000</i>
   <i type="int" name="TURBO">     0</i>
   <i type="int" name="IRESTART">     0</i>
   <i type="int" name="NREBOOT">     0</i>
   <i type="int" name="NMIN">     0</i>
   <i name="EREF">      0.00000000</i>
   <separator name="electronic smearing" >
    <i type="int" name="ISMEAR">     0</i>
    <i name="SIGMA">      0.05000000</i>
    <i name="KSPACING">      0.50000000</i>
    <i type="logical" name="KGAMMA"> T  </i>
   </separator>
   <separator name="electronic projectors" >
    <i type="logical" name="LREAL"> T  </i>
    <v name="ROPT">     -0.00025000     -0.00025000</v>
    <i type="int" name="LMAXPAW">  -100</i>
    <i type="int" name="LMAXMIX">     4</i>
    <i type="logical" name="NLSPLINE"> F  </i>
   </separator>
   <separator name="electronic startup" >
    <i type="int" name="ISTART">     0</i>
    <i type="int" name="ICHARG">    11</i>
    <i type="int" name="INIWAV">     1</i>
   </separator>
   <separator name="electronic spin" >
    <i type="int" name="ISPIN">     1</i>
    <i type="logical" name="LNONCOLLINEAR"> F  </i>
    <v name="MAGMOM">      1.00000000      1.00000000      1.00000000      1.00000000      1.00000000      1.00000000</v>
    <i name="NUPDOWN">     -1.00000000</i>
    <i type="logical" name="LSORBIT"> F  </i>
    <v name="SAXIS">      0.00000000      0.00000000      1.00000000</v>
    <i type="logical" name="LSPIRAL"> F  </i>
    <v name="QSPIRAL">      0.00000000      0.00000000      0.00000000</v>
    <i type="logical" name="LZEROZ"> F  </i>
   </separator>
   <separator name="electronic exchange-correlation" >
    <i type="logical" name="LASPH"> F  </i>
    <i type="logical" name="LMETAGGA"> F  </i>
   </separator>
   <separator name="electronic convergence" >
    <i type="int" name="NELM">   120</i>
    <i type="int" name="NELMDL">    -5</i>
    <i type="int" name="NELMIN">     2</i>
    <i name="ENINI">    520.00000000</i>
    <separator name="electronic convergence detail" >
     <i type="logical" name="LDIAG"> T  </i>
     <i type="logical" name="LSUBROT"> F  </i>
     <i name="WEIMIN">      0.00000000</i>
     <i name="EBREAK">      0.00000001</i>
     <i name="DEPER">      0.30000000</i>
     <i type="int" name="NRMM">     4</i>
     <i name="TIME">      0.40000000</i>
    </separator>
   </separator>
   <separator name="electronic mixer" >
    <i name="AMIX">      0.40000000</i>
    <i name="BMIX">      1.00000000</i>
    <i name="AMIN">      0.10000000</i>
    <i name="AMIX_MAG">      1.60000000</i>
    <i name="BMIX_MAG">      1.00000000</i>
    <separator name="electronic mixer details" >
     <i type="int" name="IMIX">     4</i>
     <i type="logical" name="MIXFIRST"> F  </i>
     <i type="int" name="MAXMIX">   -45</i>
     <i name="WC">    100.00000000</i>
     <i type="int" name="INIMIX">     1</i>
     <i type="int" name="MIXPRE">     1</i>
     <i type="int" name="MREMOVE">     5</i>
    </separator>
   </separator>
   <separator name="electronic dipolcorrection" >
    <i type="logical" name="LDIPOL"> F  </i>
    <i type="logical" name="LMONO"> F  </i>
    <i type="int" name="IDIPOL">     0</i>
    <i name="EPSILON">      1.00000000</i>
    <v name="DIPOL">   -100.00000000   -100.00000000   -100.00000000</v>
    <i name="EFIELD">      0.00000000</i>
   </separator>
  </separator>
  <separator name="grids" >
   <i type="int" name="NGX">    24</i>
   <i type="int" name="NGY">    24</i>
   <i type="int" name="NGZ">    96</i>
   <i type="int" name="NGXF">    48</i>
   <i type="int" name="NGYF">    48</i>
   <i type="int" name="NGZF">   192</i>
   <i type="logical" name="ADDGRID"> F  </i>
  </separator>
  <separator name="ionic" >
   <i type="int" name="NSW">     0</i>
   <i type="int" name="IBRION">    -1</i>
   <i type="int" name="MDALGO">     0</i>
   <i type="int" name="ISIF">     2</i>
   <i name="PSTRESS">      0.00000000</i>
   <i name="EDIFFG">      0.00001000</i>
   <i type="int" name="NFREE">     0</i>
   <i name="POTIM">      0.50000000</i>
   <i name="SMASS">     -3.00000000</i>
   <i name="SCALEE">      1.00000000</i>
  </separator>
  <separator name="ionic md" >
   <i name="TEBEG">      0.00010000</i>
   <i name="TEEND">      0.00010000</i>
   <i type="int" name="NBLOCK">     1</i>
   <i type="int" name="KBLOCK">     1</i>
   <i type="int" name="NPACO">   256</i>
   <i name="APACO">     16.00000000</i>
  </separator>
  <separator name="symmetry" >
   <i type="int" name="ISYM">     2</i>
   <i name="SYMPREC">      0.00001000</i>
  </separator>
  <separator name="dos" >
   <i type="int" name="LORBIT">    11</i>
   <v name="RWIGS">     -1.00000000     -1.00000000</v>
   <i type="int" name="NEDOS">   301</i>
   <i name="EMIN">     10.00000000</i>
   <i name="EMAX">    -10.00000000</i>
   <i name="EFERMI">      0.00000000</i>
  </separator>
  <separator name="writing" >
   <i type="int" name="NWRITE">     2</i>
   <i type="logical" name="LWAVE"> F  </i>
   <i type="logical" name="LDOWNSAMPLE"> F  </i>
   <i type="logical" name="LCHARG"> T  </i>
   <i type="logical" name="LPARD"> F  </i>
   <i type="logical" name="LVTOT"> F  </i>
   <i type="logical" name="LVHAR"> F  </i>
   <i type="logical" name="LELF"> F  </i>
   <i type="logical" name="LOPTICS"> F  </i>
   <v name="STM">      0.00000000      0.00000000      0.00000000      0.00000000      0.00000000      0.00000000      0.00000000</v>
  </separator>
  <separator name="performance" >
   <i type="int" name="NPAR">    16</i>
   <i type="int" name="NSIM">     4</i>
   <i type="int" name="NBLK">    -1</i>
   <i type="logical" name="LPLANE"> T  </i>
   <i type="logical" name="LSCALAPACK"> F  </i>
   <i type="logical" name="LSCAAWARE"> F  </i>
   <i type="logical" name="LSCALU"> F  </i>
   <i type="logical" name="LASYNC"> F  </i>
   <i type="logical" name="LORBITALREAL"> F  </i>
  </separator>
  <separator name="miscellaneous" >
   <i type="int" name="IDIOT">     3</i>
   <i type="int" name="ISPECIAL">     0</i>
   <i type="logical" name="LMUSIC"> F  </i>
   <v name="POMASS">     95.94000000     32.06600000</v>
   <v name="DARWINR">      0.00000000      0.00000000</v>
   <v name="DARWINV">      1.00000000      1.00000000</v>
   <i type="logical" name="LCORR"> T  </i>
  </separator>
  <i type="logical" name="GGA_COMPAT"> T  </i>
  <i type="logical" name="LBERRY"> F  </i>
  <i type="int" name="ICORELEVEL">     0</i>
  <i type="logical" name="LDAU"> F  </i>
  <i type="int" name="I_CONSTRAINED_M">     0</i>
  <separator name="electronic exchange-correlation" >
   <i type="string" name="GGA">--</i>
   <i type="int" name="VOSKOWN">     0</i>
   <i type="logical" name="LHFCALC"> F  </i>
   <i type="string" name="PRECFOCK"></i>
   <i type="logical" name="LSYMGRAD"> F  </i>
   <i type="logical" name="LHFONE"> F  </i>
   <i type="logical" name="LRHFCALC"> F  </i>
   <i type="logical" name="LTHOMAS"> F  </i>
   <i type="logical" name="LMODELHF"> F  </i>
   <i name="ENCUT4O">     -1.00000000</i>
   <i type="int" name="EXXOEP">     0</i>
   <i type="int" name="FOURORBIT">     0</i>
   <i name="AEXX">      0.00000000</i>
   <i name="HFALPHA">      0.00000000</i>
   <i name="MCALPHA">      0.00000000</i>
   <i name="ALDAX">      1.00000000</i>
   <i name="AGGAX">      1.00000000</i>
   <i name="ALDAC">      1.00000000</i>
   <i name="AGGAC">      1.00000000</i>
   <i type="int" name="NKREDX">     1</i>
   <i type="int" name="NKREDY">     1</i>
   <i type="int" name="NKREDZ">     1</i>
   <i type="logical" name="SHIFTRED"> F  </i>
   <i type="logical" name="ODDONLY"> F  </i>
   <i type="logical" name="EVENONLY"> F  </i>
   <i type="int" name="LMAXFOCK">     0</i>
   <i type="int" name="NMAXFOCKAE">     0</i>
   <i type="logical" name="LFOCKAEDFT"> F  </i>
   <i name="HFSCREEN">      0.00000000</i>
   <i name="HFSCREENC">      0.00000000</i>
   <i type="int" name="NBANDSGWLOW">     0</i>
  </separator>
  <separator name="vdW DFT" >
   <i type="logical" name="LUSE_VDW"> F  </i>
   <i name="Zab_VDW">     -0.84910000</i>
   <i name="PARAM1">      0.12340000</i>
   <i name="PARAM2">      1.00000000</i>
   <i name="PARAM3">      0.00000000</i>
  </separator>
  <separator name="model GW" >
   <i type="int" name="MODEL_GW">     0</i>
   <i name="MODEL_EPS0">     10.66011579</i>
   <i name="MODEL_ALPHA">      1.00000000</i>
  </separator>
  <separator name="linear response parameters" >
   <i type="logical" name="LEPSILON"> F  </i>
   <i type="logical" name="LRPA"> F  </i>
   <i type="logical" name="LNABLA"> F  </i>
   <i type="logical" name="LVEL"> F  </i>
   <i type="int" name="KINTER">     0</i>
   <i name="CSHIFT">      0.10000000</i>
   <i name="OMEGAMAX">     -1.00000000</i>
   <i name="DEG_THRESHOLD">      0.00200000</i>
   <i name="RTIME">     -0.10000000</i>
   <i name="WPLASMAI">      0.00000000</i>
   <v name="DFIELD">      0.00000000      0.00000000      0.00000000</v>
   <v name="WPLASMA">      0.00000000      0.00000000      0.00000000      0.00000000      0.00000000      0.00000000      0.00000000      0.00000000      0.00000000</v>
  </separator>
  <separator name="orbital magnetization" >
   <i type="logical" name="NUCIND"> F  </i>
   <v name="MAGPOS">      0.00000000      0.00000000      0.00000000</v>
   <i type="logical" name="LNICSALL"> T  </i>
   <i type="logical" name="ORBITALMAG"> F  </i>
   <i type="logical" name="LMAGBLOCH"> F  </i>
   <i type="logical" name="LCHIMAG"> F  </i>
   <i type="logical" name="LGAUGE"> T  </i>
   <i type="int" name="MAGATOM">     0</i>
   <v name="MAGDIPOL">      0.00000000      0.00000000      0.00000000</v>
   <v name="AVECCONST">      0.00000000      0.00000000      0.00000000</v>
  </separator>
  <separator name="response functions" >
   <i type="logical" name="LADDER"> F  </i>
   <i type="logical" name="LRPAFORCE"> F  </i>
   <i type="logical" name="LFXC"> F  </i>
   <i type="logical" name="LHARTREE"> T  </i>
   <i type="int" name="IBSE">     0</i>
   <v type="int" name="KPOINT">    -1     0     0     0</v>
   <i type="logical" name="LTCTE"> F  </i>
   <i type="logical" name="LTETE"> F  </i>
   <i type="logical" name="LTRIPLET"> F  </i>
   <i type="logical" name="LFXCEPS"> F  </i>
   <i type="logical" name="LFXHEG"> F  </i>
   <i type="int" name="NATURALO">     2</i>
   <i type="logical" name="L2ORDER"> F  </i>
   <i type="logical" name="LMP2LT"> F  </i>
   <i type="logical" name="LUSEW"> F  </i>
   <i name="ENCUTGW">     -2.00000000</i>
   <i name="ENCUTGWSOFT">     -2.00000000</i>
   <i name="ENCUTLF">     -1.00000000</i>
   <i type="int" name="LMAXMP2">    -1</i>
   <i name="SCISSOR">      0.00000000</i>
   <i type="int" name="NOMEGA">     0</i>
   <i type="int" name="NOMEGAR">     0</i>
   <i type="int" name="NBANDSGW">    -1</i>
   <i type="int" name="NBANDSO">    -1</i>
   <i type="int" name="NBANDSV">    -1</i>
   <i type="int" name="NELM">   120</i>
   <i type="int" name="NELMHF">     1</i>
   <i type="int" name="DIM">     3</i>
   <i type="int" name="ANTIRES">     0</i>
   <i name="OMEGAMAX">    -30.00000000</i>
   <i name="OMEGAMIN">    -30.00000000</i>
   <i name="OMEGATL">   -200.00000000</i>
   <i type="int" name="OMEGAGRID">   140</i>
   <i name="CSHIFT">     -0.10000000</i>
   <i type="logical" name="SELFENERGY"> F  </i>
   <i type="logical" name="LSPECTRAL"> F  </i>
   <i type="logical" name="LSPECTRALGW"> F  </i>
   <i type="logical" name="LSINGLES"> F  </i>
   <i type="logical" name="LFERMIGW"> F  </i>
   <i type="logical" name="ODDONLYGW"> F  </i>
   <i type="logical" name="EVENONLYGW"> F  </i>
   <i type="int" name="NKREDLFX">     1</i>
   <i type="int" name="NKREDLFY">     1</i>
   <i type="int" name="NKREDLFZ">     1</i>
   <i type="int" name="MAXMEM">  2800</i>
   <i type="int" name="TELESCOPE">     0</i>
   <i type="int" name="TAUPAR">     1</i>
   <i type="int" name="OMEGAPAR">    -1</i>
   <i name="LAMBDA">      1.00000000</i>
  </separator>
  <separator name="External order field" >
   <i name="OFIELD_KAPPA">      0.00000000</i>
   <v name="OFIELD_K">      0.00000000      0.00000000      0.00000000</v>
   <i name="OFIELD_Q6_NEAR">      0.00000000</i>
   <i name="OFIELD_Q6_FAR">      0.00000000</i>
   <i name="OFIELD_A">      0.00000000</i>
  </separator>
 </parameters>
 <atominfo>
  <atoms>       6 </atoms>
  <types>       2 </types>
  <array name="atoms" >
   <dimension dim="1">ion</dimension>
   <field type="string">element</field>
   <field type="int">atomtype</field>
   <set>
    <rc><c>Mo</c><c>   1</c></rc>
    <rc><c>Mo</c><c>   1</c></rc>
    <rc><c>S </c><c>   2</c></rc>
    <rc><c>S </c><c>   2</c></rc>
    <rc><c>S </c><c>   2</c></rc>
    <rc><c>S </c><c>   2</c></rc>
   </set>
  </array>
  <array name="atomtypes" >
   <dimension dim="1">type</dimension>
   <field type="int">atomspertype</field>
   <field type="string">element</field>
   <field>mass</field>
   <field>valence</field>
   <field type="string">pseudopotential</field>
   <set>
    <rc><c>   2</c><c>Mo</c><c>     95.94000000</c><c>     12.00000000</c><c>  PAW_PBE Mo_pv 04Feb2005               </c></rc>
    <rc><c>   4</c><c>S </c><c>     32.06600000</c><c>      6.00000000</c><c>  PAW_PBE S 06Sep2000                   </c></rc>
   </set>
  </array>
 </atominfo>
 <structure name="initialpos" >
  <crystal>
   <varray name="basis" >
    <v>       3.16347217       0.00000000       0.00000000 </v>
    <v>      -1.58173609       2.73964659       0.00000000 </v>
    <v>       0.00000000       0.00000000      12.29995042 </v>
   </varray>
   <i name="volume">    106.60115792 </i>
   <varray name="rec_basis" >
    <v>       0.31610836       0.18250529       0.00000000 </v>
    <v>       0.00000000       0.36501058       0.00000000 </v>
    <v>       0.00000000       0.00000000       0.08130114 </v>
   </varray>
  </crystal>
  <varray name="positions" >
   <v>       0.66666700       0.33333300       0.75000000 </v>
   <v>       0.33333300       0.66666700       0.25000000 </v>
   <v>       0.33333300       0.66666700       0.87687744 </v>
   <v>       0.66666700       0.33333300       0.37687744 </v>
   <v>       0.33333300       0.66666700       0.62312256 </v>
   <v>       0.66666700       0.33333300       0.12312256 </v>
  </varray>
 </structure>
 <calculation>
  <scstep>
   <time name="dav">    6.46    6.47</time>
   <time name="total">    6.50    6.53</time>
   <energy>
    <i name="alphaZ">    149.88735950 </i>
    <i name="ewald">  -2737.41535377 </i>
    <i name="hartreedc">  -1020.06756212 </i>
    <i name="XCdc">    124.48180490 </i>
    <i name="pawpsdc">   5178.87747765 </i>
    <i name="pawaedc">  -5137.90658373 </i>
    <i name="eentropy">     -0.00148302 </i>
    <i name="bandstr">    120.27978725 </i>
    <i name="atom">   3675.88343866 </i>
    <i name="e_fr_energy">    354.01888532 </i>
    <i name="e_wo_entrp">    354.02036833 </i>
    <i name="e_0_energy">    354.01962683 </i>
   </energy>
  </scstep>
  <scstep>
   <time name="dav">    7.35    7.35</time>
   <time name="total">    7.35    7.35</time>
   <energy>
    <i name="e_fr_energy">    -24.11376888 </i>
    <i name="e_wo_entrp">    -24.11142778 </i>
    <i name="e_0_energy">    -24.11259833 </i>
   </energy>
  </scstep>
  <scstep>
   <time name="dav">    8.97    8.97</time>
   <time name="total">    8.97    8.97</time>
   <energy>
    <i name="e_fr_energy">    -42.30324461 </i>
    <i name="e_wo_entrp">    -42.30324461 </i>
    <i name="e_0_energy">    -42.30324461 </i>
   </energy>
  </scstep>
  <scstep>
   <time name="dav">    6.92    6.93</time>
   <time name="total">    6.92    6.93</time>
   <energy>
    <i name="e_fr_energy">    -42.51050690 </i>
    <i name="e_wo_entrp">    -42.51050690 </i>
    <i name="e_0_energy">    -42.51050690 </i>
   </energy>
  </scstep>
  <scstep>
   <time name="dav">    8.29    8.30</time>
   <time name="total">    8.29    8.30</time>
   <energy>
    <i name="e_fr_energy">    -42.51476522 </i>
    <i name="e_wo_entrp">    -42.51476522 </i>
    <i name="e_0_energy">    -42.51476522 </i>
   </energy>
  </scstep>
  <scstep>
   <time name="diag">    0.72    0.72</time>
   <time name="diis">    3.56    3.60</time>
   <time name="orth">    0.07    0.07</time>
   <time name="total">    4.35    4.39</time>
   <energy>
    <i name="e_fr_energy">    -42.51490706 </i>
    <i name="e_wo_entrp">    -42.51490706 </i>
    <i name="e_0_energy">    -42.51490706 </i>
   </energy>
  </scstep>
  <scstep>
   <time name="diag">    0.68    0.68</time>
   <time name="diis">    5.42    5.43</time>
   <time name="orth">    0.07    0.07</time>
   <time name="total">    6.17    6.19</time>
   <energy>
    <i name="e_fr_energy">    -42.51491194 </i>
    <i name="e_wo_entrp">    -42.51491194 </i>
    <i name="e_0_energy">    -42.51491194 </i>
   </energy>
  </scstep>
  <scstep>
   <time name="diag">    0.71    0.71</time>
   <time name="diis">    4.16    4.16</time>
   <time name="orth">    0.07    0.07</time>
   <time name="total">    4.94    4.95</time>
   <energy>
    <i name="alphaZ">    149.88735950 </i>
    <i name="ewald">  -2737.41535377 </i>
    <i name="hartreedc">  -1020.06756212 </i>
    <i name="XCdc">    124.48180490 </i>
    <i name="pawpsdc">   5178.87747765 </i>
    <i name="pawaedc">  -5137.90658373 </i>
    <i name="eentropy">     -0.00000000 </i>
    <i name="bandstr">   -276.25549263 </i>
    <i name="atom">   3675.88343866 </i>
    <i name="e_fr_energy">    -42.51491154 </i>
    <i name="e_wo_entrp">    -42.51491154 </i>
    <i name="e_0_energy">    -42.51491154 </i>
   </energy>
  </scstep>
  <structure>
   <crystal>
    <varray name="basis" >
     <v>       3.16347217       0.00000000       0.00000000 </v>
     <v>      -1.58173609       2.73964659       0.00000000 </v>
     <v>       0.00000000       0.00000000      12.29995042 </v>
    </varray>
    <i name="volume">    106.60115792 </i>
    <varray name="rec_basis" >
     <v>       0.31610836       0.18250529       0.00000000 </v>
     <v>       0.00000000       0.36501058       0.00000000 </v>
     <v>       0.00000000       0.00000000       0.08130114 </v>
    </varray>
   </crystal>
   <varray name="positions" >
    <v>       0.66666700       0.33333300       0.75000000 </v>
    <v>       0.33333300       0.66666700       0.25000000 </v>
    <v>       0.33333300       0.66666700       0.87687744 </v>
    <v>       0.66666700       0.33333300       0.37687744 </v>
    <v>       0.33333300       0.66666700       0.62312256 </v>
    <v>       0.66666700       0.33333300       0.12312256 </v>
   </varray>
  </structure>
  <varray name="forces" >
   <v>       0.00000000      -0.00000000       0.00000000 </v>
   <v>      -0.00000000       0.00000000       0.00000000 </v>
   <v>      -0.00000000       0.00000000       0.07465847 </v>
   <v>       0.00000000      -0.00000000       0.07465847 </v>
   <v>      -0.00000000       0.00000000      -0.07465847 </v>
   <v>       0.00000000      -0.00000000      -0.07465847 </v>
  </varray>
  <varray name="stress" >
   <v>      53.27671974      -0.00000000       0.00000000 </v>
   <v>       0.00000000      53.27669328      -0.00000000 </v>
   <v>       0.00000000       0.00000000     158.37472681 </v>
  </varray>
  <energy>
   <i name="e_fr_energy">    -42.51491154 </i>
   <i name="e_wo_entrp">    -42.51491154 </i>
   <i name="e_0_energy">     -0.00000000 </i>
  </energy>
  <time name="totalsc">   63.83   64.01</time>
  <eigenvalues>
   <array>
    <dimension dim="1">band</dimension>
    <dimension dim="2">kpoint</dimension>
    <dimension dim="3">spin</dimension>
    <field>eigene</field>
    <field>occ</field>
    <set>
     <set comment="spin 1">
      <set comment="kpoint 1">
       <r>  -28.2524    1.0000 </r>
       <r>  -28.2524    1.0000 </r>
       <r>  -28.0321    1.0000 </r>
       <r>  -28.0321    1.0000 </r>
       <r>  -28.0321    1.0000 </r>
       <r>  -28.0321    1.0000 </r>
       <r>   -7.5618    1.0000 </r>
       <r>   -7.2889    1.0000 </r>
       <r>   -6.3298    1.0000 </r>
       <r>   -5.8800    1.0000 </r>
       <r>    0.5315    1.0000 </r>
       <r>    1.5703    1.0000 </r>
       <r>    3.9366    1.0000 </r>
       <r>    4.1397    1.0000 </r>
       <r>    4.1397    1.0000 </r>
       <r>    4.1529    1.0000 </r>
       <r>    4.1530    1.0000 </r>
       <r>    5.2432    1.0000 </r>
       <r>    5.2432    1.0000 </r>
       <r>    5.2900    1.0000 </r>
       <r>    5.2900    1.0000 </r>
       <r>    6.2473    1.0000 </r>
       <r>    6.2826    1.0000 </r>
       <r>    7.4386    1.0000 </r>
       <r>    9.5438    0.0000 </r>
       <r>    9.5439    0.0000 </r>
       <r>    9.5719    0.0000 </r>
       <r>    9.5719    0.0000 </r>
       <r>    9.7180    0.0000 </r>
       <r>    9.7180    0.0000 </r>
       <r>    9.8918    0.0000 </r>
       <r>    9.8918    0.0000 </r>
      </set>
      <set comment="kpoint 2">
       <r>  -28.2519    1.0000 </r>
       <r>  -28.2518    1.0000 </r>
       <r>  -28.0348    1.0000 </r>
       <r>  -28.0348    1.0000 </r>
       <r>  -28.0327    1.0000 </r>
       <r>  -28.0327    1.0000 </r>
       <r>   -7.5510    1.0000 </r>
       <r>   -7.2783    1.0000 </r>
       <r>   -6.3247    1.0000 </r>
       <r>   -5.8762    1.0000 </r>
       <r>    0.5439    1.0000 </r>
       <r>    1.5825    1.0000 </r>
       <r>    3.9126    1.0000 </r>
       <r>    4.1146    1.0000 </r>
       <r>    4.1286    1.0000 </r>
       <r>    4.1505    1.0000 </r>
       <r>    4.1643    1.0000 </r>
       <r>    5.1945    1.0000 </r>
       <r>    5.2251    1.0000 </r>
       <r>    5.2725    1.0000 </r>
       <r>    5.3019    1.0000 </r>
       <r>    6.2728    1.0000 </r>
       <r>    6.2841    1.0000 </r>
       <r>    7.4180    1.0000 </r>
       <r>    9.5306    0.0000 </r>
       <r>    9.5551    0.0000 </r>
       <r>    9.5610    0.0000 </r>
       <r>    9.5937    0.0000 </r>
       <r>    9.7041    0.0000 </r>
       <r>    9.7054    0.0000 </r>
       <r>    9.8541    0.0000 </r>
       <r>    9.8806    0.0000 </r>
      </set>
      <set comment="kpoint 3">
       <r>  -28.2503    1.0000 </r>
       <r>  -28.2502    1.0000 </r>
       <r>  -28.0431    1.0000 </r>
       <r>  -28.0431    1.0000 </r>
       <r>  -28.0346    1.0000 </r>
       <r>  -28.0345    1.0000 </r>
       <r>   -7.5190    1.0000 </r>
       <r>   -7.2467    1.0000 </r>
       <r>   -6.3095    1.0000 </r>
       <r>   -5.8650    1.0000 </r>
       <r>    0.5807    1.0000 </r>
       <r>    1.6184    1.0000 </r>
       <r>    3.8449    1.0000 </r>
       <r>    4.0413    1.0000 </r>
       <r>    4.0578    1.0000 </r>
       <r>    4.1826    1.0000 </r>
       <r>    4.1981    1.0000 </r>
       <r>    5.0655    1.0000 </r>
       <r>    5.1726    1.0000 </r>
       <r>    5.2216    1.0000 </r>
       <r>    5.3324    1.0000 </r>
       <r>    6.2879    1.0000 </r>
       <r>    6.3300    1.0000 </r>
       <r>    7.3562    1.0000 </r>
       <r>    9.4961    0.0000 </r>
       <r>    9.5116    0.0000 </r>
       <r>    9.6116    0.0000 </r>
       <r>    9.6564    0.0000 </r>
       <r>    9.6638    0.0000 </r>
       <r>    9.6683    0.0000 </r>
       <r>    9.7507    0.0000 </r>
       <r>    9.8478    0.0000 </r>
      </set>
      <set comment="kpoint 4">
       <r>  -28.2477    1.0000 </r>
       <r>  -28.2476    1.0000 </r>
       <r>  -28.0565    1.0000 </r>
       <r>  -28.0565    1.0000 </r>
       <r>  -28.0376    1.0000 </r>
       <r>  -28.0376    1.0000 </r>
       <r>   -7.4660    1.0000 </r>
       <r>   -7.1946    1.0000 </r>
       <r>   -6.2845    1.0000 </r>
       <r>   -5.8465    1.0000 </r>
       <r>    0.6407    1.0000 </r>
       <r>    1.6765    1.0000 </r>
       <r>    3.7431    1.0000 </r>
       <r>    3.9254    1.0000 </r>
       <r>    3.9464    1.0000 </r>
       <r>    4.2354    1.0000 </r>
       <r>    4.2537    1.0000 </r>
       <r>    4.8864    1.0000 </r>
       <r>    5.0899    1.0000 </r>
       <r>    5.1413    1.0000 </r>
       <r>    5.3686    1.0000 </r>
       <r>    6.2916    1.0000 </r>
       <r>    6.3826    1.0000 </r>
       <r>    7.2533    1.0000 </r>
       <r>    9.4393    0.0000 </r>
       <r>    9.4738    0.0000 </r>
       <r>    9.5681    0.0000 </r>
       <r>    9.6008    0.0000 </r>
       <r>    9.6456    0.0000 </r>
       <r>    9.6923    0.0000 </r>
       <r>    9.7534    0.0000 </r>
       <r>    9.7951    0.0000 </r>
      </set>
      <set comment="kpoint 5">
       <r>  -28.2441    1.0000 </r>
       <r>  -28.2440    1.0000 </r>
       <r>  -28.0748    1.0000 </r>
       <r>  -28.0748    1.0000 </r>
       <r>  -28.0417    1.0000 </r>
       <r>  -28.0417    1.0000 </r>
       <r>   -7.3930    1.0000 </r>
       <r>   -7.1228    1.0000 </r>
       <r>   -6.2499    1.0000 </r>
       <r>   -5.8211    1.0000 </r>
       <r>    0.7214    1.0000 </r>
       <r>    1.7533    1.0000 </r>
       <r>    3.6175    1.0000 </r>
       <r>    3.7754    1.0000 </r>
       <r>    3.8035    1.0000 </r>
       <r>    4.3078    1.0000 </r>
       <r>    4.3298    1.0000 </r>
       <r>    4.6784    1.0000 </r>
       <r>    4.9831    1.0000 </r>
       <r>    5.0372    1.0000 </r>
       <r>    5.3960    1.0000 </r>
       <r>    6.2914    1.0000 </r>
       <r>    6.4024    1.0000 </r>
       <r>    7.1111    1.0000 </r>
       <r>    9.3757    0.0000 </r>
       <r>    9.3831    0.0000 </r>
       <r>    9.4657    0.0000 </r>
       <r>    9.5207    0.0000 </r>
       <r>    9.5918    0.0000 </r>
       <r>    9.7258    0.0000 </r>
       <r>    9.7965    0.0000 </r>
       <r>    9.8774    0.0000 </r>
      </set>
      <set comment="kpoint 6">
       <r>  -28.2396    1.0000 </r>
       <r>  -28.2396    1.0000 </r>
       <r>  -28.0973    1.0000 </r>
       <r>  -28.0973    1.0000 </r>
       <r>  -28.0469    1.0000 </r>
       <r>  -28.0469    1.0000 </r>
       <r>   -7.3010    1.0000 </r>
       <r>   -7.0326    1.0000 </r>
       <r>   -6.2063    1.0000 </r>
       <r>   -5.7892    1.0000 </r>
       <r>    0.8196    1.0000 </r>
       <r>    1.8434    1.0000 </r>
       <r>    3.4761    1.0000 </r>
       <r>    3.6007    1.0000 </r>
       <r>    3.6404    1.0000 </r>
       <r>    4.3981    1.0000 </r>
       <r>    4.4249    1.0000 </r>
       <r>    4.4537    1.0000 </r>
       <r>    4.8586    1.0000 </r>
       <r>    4.9158    1.0000 </r>
       <r>    5.4029    1.0000 </r>
       <r>    6.2816    1.0000 </r>
       <r>    6.3752    1.0000 </r>
       <r>    6.9343    1.0000 </r>
       <r>    9.1832    0.0000 </r>
       <r>    9.3283    0.0000 </r>
       <r>    9.4296    0.0000 </r>
       <r>    9.4994    0.0000 </r>
       <r>    9.5494    0.0000 </r>
       <r>    9.6441    0.0000 </r>
       <r>    9.9164    0.0000 </r>
       <r>   10.0201    0.0000 </r>
      </set>
      <set comment="kpoint 7">
       <r>  -28.2344    1.0000 </r>
       <r>  -28.2344    1.0000 </r>
       <r>  -28.1234    1.0000 </r>
       <r>  -28.1234    1.0000 </r>
       <r>  -28.0528    1.0000 </r>
       <r>  -28.0528    1.0000 </r>
       <r>   -7.1913    1.0000 </r>
       <r>   -6.9256    1.0000 </r>
       <r>   -6.1543    1.0000 </r>
       <r>   -5.7515    1.0000 </r>
       <r>    0.9300    1.0000 </r>
       <r>    1.9378    1.0000 </r>
       <r>    3.3245    1.0000 </r>
       <r>    3.4115    1.0000 </r>
       <r>    3.4711    1.0000 </r>
       <r>    4.2189    1.0000 </r>
       <r>    4.5040    1.0000 </r>
       <r>    4.5368    1.0000 </r>
       <r>    4.7228    1.0000 </r>
       <r>    4.7831    1.0000 </r>
       <r>    5.3821    1.0000 </r>
       <r>    6.2555    1.0000 </r>
       <r>    6.3002    1.0000 </r>
       <r>    6.7314    1.0000 </r>
       <r>    8.9946    0.0000 </r>
       <r>    9.3110    0.0000 </r>
       <r>    9.3336    0.0000 </r>
       <r>    9.5180    0.0000 </r>
       <r>    9.5547    0.0000 </r>
       <r>    9.5813    0.0000 </r>
       <r>   10.0441    0.0000 </r>
       <r>   10.1737    0.0000 </r>
      </set>
      <set comment="kpoint 8">
       <r>  -28.2287    1.0000 </r>
       <r>  -28.2286    1.0000 </r>
       <r>  -28.1524    1.0000 </r>
       <r>  -28.1524    1.0000 </r>
       <r>  -28.0595    1.0000 </r>
       <r>  -28.0595    1.0000 </r>
       <r>   -7.0658    1.0000 </r>
       <r>   -6.8036    1.0000 </r>
       <r>   -6.0948    1.0000 </r>
       <r>   -5.7086    1.0000 </r>
       <r>    1.0454    1.0000 </r>
       <r>    2.0219    1.0000 </r>
       <r>    3.1662    1.0000 </r>
       <r>    3.2183    1.0000 </r>
       <r>    3.3127    1.0000 </r>
       <r>    3.9782    1.0000 </r>
       <r>    4.5814    1.0000 </r>
       <r>    4.6227    1.0000 </r>
       <r>    4.6447    1.0000 </r>
       <r>    4.6630    1.0000 </r>
       <r>    5.3328    1.0000 </r>
       <r>    6.1866    1.0000 </r>
       <r>    6.2065    1.0000 </r>
       <r>    6.5150    1.0000 </r>
       <r>    8.8368    0.0000 </r>
       <r>    9.2386    0.0000 </r>
       <r>    9.3308    0.0000 </r>
       <r>    9.4628    0.0000 </r>
       <r>    9.4984    0.0000 </r>
       <r>    9.7073    0.0000 </r>
       <r>   10.1729    0.0000 </r>
       <r>   10.3309    0.0000 </r>
      </set>
      <set comment="kpoint 9">
       <r>  -28.2224    1.0000 </r>
       <r>  -28.2224    1.0000 </r>
       <r>  -28.1835    1.0000 </r>
       <r>  -28.1835    1.0000 </r>
       <r>  -28.0666    1.0000 </r>
       <r>  -28.0666    1.0000 </r>
       <r>   -6.9264    1.0000 </r>
       <r>   -6.6690    1.0000 </r>
       <r>   -6.0288    1.0000 </r>
       <r>   -5.6617    1.0000 </r>
       <r>    1.1558    1.0000 </r>
       <r>    2.0735    1.0000 </r>
       <r>    3.0038    1.0000 </r>
       <r>    3.0315    1.0000 </r>
       <r>    3.1872    1.0000 </r>
       <r>    3.7350    1.0000 </r>
       <r>    4.4391    1.0000 </r>
       <r>    4.5051    1.0000 </r>
       <r>    4.7509    1.0000 </r>
       <r>    4.8002    1.0000 </r>
       <r>    5.2593    1.0000 </r>
       <r>    6.0482    1.0000 </r>
       <r>    6.1285    1.0000 </r>
       <r>    6.3032    1.0000 </r>
       <r>    8.7245    0.0000 </r>
       <r>    9.1500    0.0000 </r>
       <r>    9.3729    0.0000 </r>
       <r>    9.3876    0.0000 </r>
       <r>    9.4900    0.0000 </r>
       <r>    9.8673    0.0000 </r>
       <r>   10.2968    0.0000 </r>
       <r>   10.4856    0.0000 </r>
      </set>
      <set comment="kpoint 10">
       <r>  -28.2159    1.0000 </r>
       <r>  -28.2159    1.0000 </r>
       <r>  -28.2157    1.0000 </r>
       <r>  -28.2156    1.0000 </r>
       <r>  -28.0740    1.0000 </r>
       <r>  -28.0740    1.0000 </r>
       <r>   -6.7756    1.0000 </r>
       <r>   -6.5245    1.0000 </r>
       <r>   -5.9575    1.0000 </r>
       <r>   -5.6117    1.0000 </r>
       <r>    1.2477    1.0000 </r>
       <r>    2.0676    1.0000 </r>
       <r>    2.8393    1.0000 </r>
       <r>    2.8625    1.0000 </r>
       <r>    3.1163    1.0000 </r>
       <r>    3.4923    1.0000 </r>
       <r>    4.2998    1.0000 </r>
       <r>    4.3684    1.0000 </r>
       <r>    4.8844    1.0000 </r>
       <r>    4.9447    1.0000 </r>
       <r>    5.1699    1.0000 </r>
       <r>    5.8982    1.0000 </r>
       <r>    6.0108    1.0000 </r>
       <r>    6.1272    1.0000 </r>
       <r>    8.6650    0.0000 </r>
       <r>    9.0724    0.0000 </r>
       <r>    9.2896    0.0000 </r>
       <r>    9.4759    0.0000 </r>
       <r>    9.4914    0.0000 </r>
       <r>   10.0489    0.0000 </r>
       <r>   10.4118    0.0000 </r>
       <r>   10.6326    0.0000 </r>
      </set>
      <set comment="kpoint 11">
       <r>  -28.2481    1.0000 </r>
       <r>  -28.2481    1.0000 </r>
       <r>  -28.2093    1.0000 </r>
       <r>  -28.2093    1.0000 </r>
       <r>  -28.0815    1.0000 </r>
       <r>  -28.0815    1.0000 </r>
       <r>   -6.6164    1.0000 </r>
       <r>   -6.3733    1.0000 </r>
       <r>   -5.8824    1.0000 </r>
       <r>   -5.5600    1.0000 </r>
       <r>    1.3055    1.0000 </r>
       <r>    1.9958    1.0000 </r>
       <r>    2.6748    1.0000 </r>
       <r>    2.7219    1.0000 </r>
       <r>    3.1021    1.0000 </r>
       <r>    3.2536    1.0000 </r>
       <r>    4.1668    1.0000 </r>
       <r>    4.2377    1.0000 </r>
       <r>    5.0191    1.0000 </r>
       <r>    5.0740    1.0000 </r>
       <r>    5.0924    1.0000 </r>
       <r>    5.7469    1.0000 </r>
       <r>    5.8612    1.0000 </r>
       <r>    6.0084    1.0000 </r>
       <r>    8.6577    0.0000 </r>
       <r>    9.0097    0.0000 </r>
       <r>    9.2164    0.0000 </r>
       <r>    9.5008    0.0000 </r>
       <r>    9.5870    0.0000 </r>
       <r>   10.2405    0.0000 </r>
       <r>   10.5147    0.0000 </r>
       <r>   10.7684    0.0000 </r>
      </set>
      <set comment="kpoint 12">
       <r>  -28.2800    1.0000 </r>
       <r>  -28.2800    1.0000 </r>
       <r>  -28.2028    1.0000 </r>
       <r>  -28.2028    1.0000 </r>
       <r>  -28.0889    1.0000 </r>
       <r>  -28.0889    1.0000 </r>
       <r>   -6.4520    1.0000 </r>
       <r>   -6.2190    1.0000 </r>
       <r>   -5.8050    1.0000 </r>
       <r>   -5.5081    1.0000 </r>
       <r>    1.3158    1.0000 </r>
       <r>    1.8751    1.0000 </r>
       <r>    2.5128    1.0000 </r>
       <r>    2.6167    1.0000 </r>
       <r>    3.0225    1.0000 </r>
       <r>    3.1199    1.0000 </r>
       <r>    4.0425    1.0000 </r>
       <r>    4.1154    1.0000 </r>
       <r>    4.9804    1.0000 </r>
       <r>    5.1501    1.0000 </r>
       <r>    5.2388    1.0000 </r>
       <r>    5.6014    1.0000 </r>
       <r>    5.7312    1.0000 </r>
       <r>    5.9277    1.0000 </r>
       <r>    8.6962    0.0000 </r>
       <r>    8.9648    0.0000 </r>
       <r>    9.1564    0.0000 </r>
       <r>    9.5167    0.0000 </r>
       <r>    9.7105    0.0000 </r>
       <r>   10.4319    0.0000 </r>
       <r>   10.6041    0.0000 </r>
       <r>   10.8903    0.0000 </r>
      </set>
      <set comment="kpoint 13">
       <r>  -28.3103    1.0000 </r>
       <r>  -28.3103    1.0000 </r>
       <r>  -28.1966    1.0000 </r>
       <r>  -28.1965    1.0000 </r>
       <r>  -28.0960    1.0000 </r>
       <r>  -28.0960    1.0000 </r>
       <r>   -6.2865    1.0000 </r>
       <r>   -6.0659    1.0000 </r>
       <r>   -5.7274    1.0000 </r>
       <r>   -5.4577    1.0000 </r>
       <r>    1.2757    1.0000 </r>
       <r>    1.7304    1.0000 </r>
       <r>    2.3564    1.0000 </r>
       <r>    2.5439    1.0000 </r>
       <r>    2.8034    1.0000 </r>
       <r>    3.1385    1.0000 </r>
       <r>    3.9290    1.0000 </r>
       <r>    4.0036    1.0000 </r>
       <r>    4.8959    1.0000 </r>
       <r>    5.2731    1.0000 </r>
       <r>    5.3790    1.0000 </r>
       <r>    5.4658    1.0000 </r>
       <r>    5.6482    1.0000 </r>
       <r>    5.8860    1.0000 </r>
       <r>    8.7713    0.0000 </r>
       <r>    8.9389    0.0000 </r>
       <r>    9.1113    0.0000 </r>
       <r>    9.5379    0.0000 </r>
       <r>    9.8366    0.0000 </r>
       <r>   10.6143    0.0000 </r>
       <r>   10.6794    0.0000 </r>
       <r>   10.9970    0.0000 </r>
      </set>
      <set comment="kpoint 14">
       <r>  -28.3385    1.0000 </r>
       <r>  -28.3385    1.0000 </r>
       <r>  -28.1908    1.0000 </r>
       <r>  -28.1907    1.0000 </r>
       <r>  -28.1026    1.0000 </r>
       <r>  -28.1026    1.0000 </r>
       <r>   -6.1243    1.0000 </r>
       <r>   -5.9185    1.0000 </r>
       <r>   -5.6515    1.0000 </r>
       <r>   -5.4106    1.0000 </r>
       <r>    1.1956    1.0000 </r>
       <r>    1.5804    1.0000 </r>
       <r>    2.2095    1.0000 </r>
       <r>    2.4910    1.0000 </r>
       <r>    2.6008    1.0000 </r>
       <r>    3.1389    1.0000 </r>
       <r>    3.8279    1.0000 </r>
       <r>    3.9040    1.0000 </r>
       <r>    4.8249    1.0000 </r>
       <r>    5.3428    1.0000 </r>
       <r>    5.3841    1.0000 </r>
       <r>    5.5085    1.0000 </r>
       <r>    5.6205    1.0000 </r>
       <r>    5.8887    1.0000 </r>
       <r>    8.8732    0.0000 </r>
       <r>    8.9319    0.0000 </r>
       <r>    9.0817    0.0000 </r>
       <r>    9.5633    0.0000 </r>
       <r>    9.9565    0.0000 </r>
       <r>   10.7412    0.0000 </r>
       <r>   10.7801    0.0000 </r>
       <r>   11.0877    0.0000 </r>
      </set>
      <set comment="kpoint 15">
       <r>  -28.3636    1.0000 </r>
       <r>  -28.3636    1.0000 </r>
       <r>  -28.1855    1.0000 </r>
       <r>  -28.1855    1.0000 </r>
       <r>  -28.1085    1.0000 </r>
       <r>  -28.1085    1.0000 </r>
       <r>   -5.9705    1.0000 </r>
       <r>   -5.7821    1.0000 </r>
       <r>   -5.5796    1.0000 </r>
       <r>   -5.3685    1.0000 </r>
       <r>    1.0932    1.0000 </r>
       <r>    1.4370    1.0000 </r>
       <r>    2.0760    1.0000 </r>
       <r>    2.4192    1.0000 </r>
       <r>    2.4448    1.0000 </r>
       <r>    3.1165    1.0000 </r>
       <r>    3.7404    1.0000 </r>
       <r>    3.8178    1.0000 </r>
       <r>    4.7698    1.0000 </r>
       <r>    5.2335    1.0000 </r>
       <r>    5.4799    1.0000 </r>
       <r>    5.6232    1.0000 </r>
       <r>    5.6464    1.0000 </r>
       <r>    5.9309    1.0000 </r>
       <r>    8.9414    0.0000 </r>
       <r>    8.9926    0.0000 </r>
       <r>    9.0668    0.0000 </r>
       <r>    9.5923    0.0000 </r>
       <r>   10.0633    0.0000 </r>
       <r>   10.7903    0.0000 </r>
       <r>   10.9232    0.0000 </r>
       <r>   11.1628    0.0000 </r>
      </set>
      <set comment="kpoint 16">
       <r>  -28.3851    1.0000 </r>
       <r>  -28.3851    1.0000 </r>
       <r>  -28.1810    1.0000 </r>
       <r>  -28.1810    1.0000 </r>
       <r>  -28.1136    1.0000 </r>
       <r>  -28.1136    1.0000 </r>
       <r>   -5.8310    1.0000 </r>
       <r>   -5.6619    1.0000 </r>
       <r>   -5.5142    1.0000 </r>
       <r>   -5.3333    1.0000 </r>
       <r>    0.9859    1.0000 </r>
       <r>    1.3086    1.0000 </r>
       <r>    1.9600    1.0000 </r>
       <r>    2.2631    1.0000 </r>
       <r>    2.3995    1.0000 </r>
       <r>    3.0772    1.0000 </r>
       <r>    3.6677    1.0000 </r>
       <r>    3.7461    1.0000 </r>
       <r>    4.7308    1.0000 </r>
       <r>    5.1390    1.0000 </r>
       <r>    5.5585    1.0000 </r>
       <r>    5.7155    1.0000 </r>
       <r>    5.7199    1.0000 </r>
       <r>    5.9970    1.0000 </r>
       <r>    8.9628    0.0000 </r>
       <r>    9.0639    0.0000 </r>
       <r>    9.1195    0.0000 </r>
       <r>    9.6235    0.0000 </r>
       <r>   10.1525    0.0000 </r>
       <r>   10.8279    0.0000 </r>
       <r>   11.0390    0.0000 </r>
       <r>   11.2226    0.0000 </r>
      </set>
      <set comment="kpoint 17">
       <r>  -28.4023    1.0000 </r>
       <r>  -28.4023    1.0000 </r>
       <r>  -28.1774    1.0000 </r>
       <r>  -28.1774    1.0000 </r>
       <r>  -28.1176    1.0000 </r>
       <r>  -28.1176    1.0000 </r>
       <r>   -5.7120    1.0000 </r>
       <r>   -5.5631    1.0000 </r>
       <r>   -5.4579    1.0000 </r>
       <r>   -5.3063    1.0000 </r>
       <r>    0.8878    1.0000 </r>
       <r>    1.2014    1.0000 </r>
       <r>    1.8655    1.0000 </r>
       <r>    2.1366    1.0000 </r>
       <r>    2.3564    1.0000 </r>
       <r>    3.0315    1.0000 </r>
       <r>    3.6104    1.0000 </r>
       <r>    3.6895    1.0000 </r>
       <r>    4.7069    1.0000 </r>
       <r>    5.0604    1.0000 </r>
       <r>    5.6191    1.0000 </r>
       <r>    5.7963    1.0000 </r>
       <r>    5.8106    1.0000 </r>
       <r>    6.0663    1.0000 </r>
       <r>    8.9901    0.0000 </r>
       <r>    9.0691    0.0000 </r>
       <r>    9.2428    0.0000 </r>
       <r>    9.6550    0.0000 </r>
       <r>   10.2218    0.0000 </r>
       <r>   10.8556    0.0000 </r>
       <r>   11.1259    0.0000 </r>
       <r>   11.2679    0.0000 </r>
      </set>
      <set comment="kpoint 18">
       <r>  -28.4150    1.0000 </r>
       <r>  -28.4150    1.0000 </r>
       <r>  -28.1747    1.0000 </r>
       <r>  -28.1747    1.0000 </r>
       <r>  -28.1206    1.0000 </r>
       <r>  -28.1206    1.0000 </r>
       <r>   -5.6200    1.0000 </r>
       <r>   -5.4900    1.0000 </r>
       <r>   -5.4136    1.0000 </r>
       <r>   -5.2881    1.0000 </r>
       <r>    0.8097    1.0000 </r>
       <r>    1.1207    1.0000 </r>
       <r>    1.7955    1.0000 </r>
       <r>    2.0434    1.0000 </r>
       <r>    2.3204    1.0000 </r>
       <r>    2.9904    1.0000 </r>
       <r>    3.5691    1.0000 </r>
       <r>    3.6487    1.0000 </r>
       <r>    4.6951    1.0000 </r>
       <r>    4.9997    1.0000 </r>
       <r>    5.6618    1.0000 </r>
       <r>    5.8513    1.0000 </r>
       <r>    5.9104    1.0000 </r>
       <r>    6.1199    1.0000 </r>
       <r>    9.0163    0.0000 </r>
       <r>    9.0777    0.0000 </r>
       <r>    9.3487    0.0000 </r>
       <r>    9.6831    0.0000 </r>
       <r>   10.2707    0.0000 </r>
       <r>   10.8743    0.0000 </r>
       <r>   11.1846    0.0000 </r>
       <r>   11.2996    0.0000 </r>
      </set>
      <set comment="kpoint 19">
       <r>  -28.4227    1.0000 </r>
       <r>  -28.4227    1.0000 </r>
       <r>  -28.1731    1.0000 </r>
       <r>  -28.1731    1.0000 </r>
       <r>  -28.1225    1.0000 </r>
       <r>  -28.1225    1.0000 </r>
       <r>   -5.5612    1.0000 </r>
       <r>   -5.4455    1.0000 </r>
       <r>   -5.3846    1.0000 </r>
       <r>   -5.2785    1.0000 </r>
       <r>    0.7596    1.0000 </r>
       <r>    1.0704    1.0000 </r>
       <r>    1.7526    1.0000 </r>
       <r>    1.9862    1.0000 </r>
       <r>    2.2965    1.0000 </r>
       <r>    2.9623    1.0000 </r>
       <r>    3.5441    1.0000 </r>
       <r>    3.6241    1.0000 </r>
       <r>    4.6914    1.0000 </r>
       <r>    4.9605    1.0000 </r>
       <r>    5.6870    1.0000 </r>
       <r>    5.8844    1.0000 </r>
       <r>    5.9913    1.0000 </r>
       <r>    6.1467    1.0000 </r>
       <r>    9.0351    0.0000 </r>
       <r>    9.0851    0.0000 </r>
       <r>    9.4216    0.0000 </r>
       <r>    9.7029    0.0000 </r>
       <r>   10.2996    0.0000 </r>
       <r>   10.8852    0.0000 </r>
       <r>   11.2179    0.0000 </r>
       <r>   11.3184    0.0000 </r>
      </set>
      <set comment="kpoint 20">
       <r>  -28.4253    1.0000 </r>
       <r>  -28.4253    1.0000 </r>
       <r>  -28.1726    1.0000 </r>
       <r>  -28.1725    1.0000 </r>
       <r>  -28.1231    1.0000 </r>
       <r>  -28.1231    1.0000 </r>
       <r>   -5.5410    1.0000 </r>
       <r>   -5.4307    1.0000 </r>
       <r>   -5.3743    1.0000 </r>
       <r>   -5.2756    1.0000 </r>
       <r>    0.7423    1.0000 </r>
       <r>    1.0534    1.0000 </r>
       <r>    1.7381    1.0000 </r>
       <r>    1.9669    1.0000 </r>
       <r>    2.2881    1.0000 </r>
       <r>    2.9524    1.0000 </r>
       <r>    3.5358    1.0000 </r>
       <r>    3.6159    1.0000 </r>
       <r>    4.6909    1.0000 </r>
       <r>    4.9467    1.0000 </r>
       <r>    5.6954    1.0000 </r>
       <r>    5.8954    1.0000 </r>
       <r>    6.0247    1.0000 </r>
       <r>    6.1519    1.0000 </r>
       <r>    9.0419    0.0000 </r>
       <r>    9.0880    0.0000 </r>
       <r>    9.4478    0.0000 </r>
       <r>    9.7101    0.0000 </r>
       <r>   10.3091    0.0000 </r>
       <r>   10.8887    0.0000 </r>
       <r>   11.2286    0.0000 </r>
       <r>   11.3246    0.0000 </r>
      </set>
      <set comment="kpoint 21">
       <r>  -28.4253    1.0000 </r>
       <r>  -28.4253    1.0000 </r>
       <r>  -28.1726    1.0000 </r>
       <r>  -28.1725    1.0000 </r>
       <r>  -28.1231    1.0000 </r>
       <r>  -28.1231    1.0000 </r>
       <r>   -5.5410    1.0000 </r>
       <r>   -5.4307    1.0000 </r>
       <r>   -5.3743    1.0000 </r>
       <r>   -5.2756    1.0000 </r>
       <r>    0.7423    1.0000 </r>
       <r>    1.0534    1.0000 </r>
       <r>    1.7381    1.0000 </r>
       <r>    1.9669    1.0000 </r>
       <r>    2.2881    1.0000 </r>
       <r>    2.9524    1.0000 </r>
       <r>    3.5358    1.0000 </r>
       <r>    3.6159    1.0000 </r>
       <r>    4.6909    1.0000 </r>
       <r>    4.9467    1.0000 </r>
       <r>    5.6954    1.0000 </r>
       <r>    5.8954    1.0000 </r>
       <r>    6.0247    1.0000 </r>
       <r>    6.1519    1.0000 </r>
       <r>    9.0419    0.0000 </r>
       <r>    9.0880    0.0000 </r>
       <r>    9.4478    0.0000 </r>
       <r>    9.7101    0.0000 </r>
       <r>   10.3091    0.0000 </r>
       <r>   10.8887    0.0000 </r>
       <r>   11.2286    0.0000 </r>
       <r>   11.3246    0.0000 </r>
      </set>
      <set comment="kpoint 22">
       <r>  -28.4250    1.0000 </r>
       <r>  -28.4250    1.0000 </r>
       <r>  -28.1725    1.0000 </r>
       <r>  -28.1725    1.0000 </r>
       <r>  -28.1238    1.0000 </r>
       <r>  -28.1238    1.0000 </r>
       <r>   -5.5392    1.0000 </r>
       <r>   -5.4292    1.0000 </r>
       <r>   -5.3732    1.0000 </r>
       <r>   -5.2747    1.0000 </r>
       <r>    0.7470    1.0000 </r>
       <r>    1.0577    1.0000 </r>
       <r>    1.7371    1.0000 </r>
       <r>    1.9612    1.0000 </r>
       <r>    2.2903    1.0000 </r>
       <r>    2.9537    1.0000 </r>
       <r>    3.5382    1.0000 </r>
       <r>    3.6089    1.0000 </r>
       <r>    4.6906    1.0000 </r>
       <r>    4.9514    1.0000 </r>
       <r>    5.6572    1.0000 </r>
       <r>    5.8551    1.0000 </r>
       <r>    6.0453    1.0000 </r>
       <r>    6.1778    1.0000 </r>
       <r>    9.0471    0.0000 </r>
       <r>    9.0859    0.0000 </r>
       <r>    9.4477    0.0000 </r>
       <r>    9.7128    0.0000 </r>
       <r>   10.3156    0.0000 </r>
       <r>   10.8679    0.0000 </r>
       <r>   11.2358    0.0000 </r>
       <r>   11.3135    0.0000 </r>
      </set>
      <set comment="kpoint 23">
       <r>  -28.4239    1.0000 </r>
       <r>  -28.4239    1.0000 </r>
       <r>  -28.1723    1.0000 </r>
       <r>  -28.1723    1.0000 </r>
       <r>  -28.1261    1.0000 </r>
       <r>  -28.1261    1.0000 </r>
       <r>   -5.5341    1.0000 </r>
       <r>   -5.4249    1.0000 </r>
       <r>   -5.3699    1.0000 </r>
       <r>   -5.2720    1.0000 </r>
       <r>    0.7611    1.0000 </r>
       <r>    1.0708    1.0000 </r>
       <r>    1.7340    1.0000 </r>
       <r>    1.9442    1.0000 </r>
       <r>    2.2967    1.0000 </r>
       <r>    2.9578    1.0000 </r>
       <r>    3.5456    1.0000 </r>
       <r>    3.5887    1.0000 </r>
       <r>    4.6895    1.0000 </r>
       <r>    4.9647    1.0000 </r>
       <r>    5.5615    1.0000 </r>
       <r>    5.7605    1.0000 </r>
       <r>    6.0889    1.0000 </r>
       <r>    6.2296    1.0000 </r>
       <r>    9.0615    0.0000 </r>
       <r>    9.0797    0.0000 </r>
       <r>    9.4478    0.0000 </r>
       <r>    9.7210    0.0000 </r>
       <r>   10.3347    0.0000 </r>
       <r>   10.8082    0.0000 </r>
       <r>   11.2568    0.0000 </r>
       <r>   11.2812    0.0000 </r>
      </set>
      <set comment="kpoint 24">
       <r>  -28.4220    1.0000 </r>
       <r>  -28.4220    1.0000 </r>
       <r>  -28.1720    1.0000 </r>
       <r>  -28.1720    1.0000 </r>
       <r>  -28.1299    1.0000 </r>
       <r>  -28.1299    1.0000 </r>
       <r>   -5.5256    1.0000 </r>
       <r>   -5.4177    1.0000 </r>
       <r>   -5.3645    1.0000 </r>
       <r>   -5.2676    1.0000 </r>
       <r>    0.7845    1.0000 </r>
       <r>    1.0925    1.0000 </r>
       <r>    1.7285    1.0000 </r>
       <r>    1.9166    1.0000 </r>
       <r>    2.3074    1.0000 </r>
       <r>    2.9643    1.0000 </r>
       <r>    3.5574    1.0000 </r>
       <r>    3.5578    1.0000 </r>
       <r>    4.6874    1.0000 </r>
       <r>    4.9846    1.0000 </r>
       <r>    5.4317    1.0000 </r>
       <r>    5.6377    1.0000 </r>
       <r>    6.1347    1.0000 </r>
       <r>    6.2830    1.0000 </r>
       <r>    9.0693    0.0000 </r>
       <r>    9.0825    0.0000 </r>
       <r>    9.4498    0.0000 </r>
       <r>    9.7342    0.0000 </r>
       <r>   10.3660    0.0000 </r>
       <r>   10.7165    0.0000 </r>
       <r>   11.2308    0.0000 </r>
       <r>   11.2902    0.0000 </r>
      </set>
      <set comment="kpoint 25">
       <r>  -28.4194    1.0000 </r>
       <r>  -28.4194    1.0000 </r>
       <r>  -28.1716    1.0000 </r>
       <r>  -28.1716    1.0000 </r>
       <r>  -28.1350    1.0000 </r>
       <r>  -28.1350    1.0000 </r>
       <r>   -5.5139    1.0000 </r>
       <r>   -5.4078    1.0000 </r>
       <r>   -5.3569    1.0000 </r>
       <r>   -5.2616    1.0000 </r>
       <r>    0.8170    1.0000 </r>
       <r>    1.1226    1.0000 </r>
       <r>    1.7203    1.0000 </r>
       <r>    1.8795    1.0000 </r>
       <r>    2.3221    1.0000 </r>
       <r>    2.9730    1.0000 </r>
       <r>    3.5197    1.0000 </r>
       <r>    3.5735    1.0000 </r>
       <r>    4.6842    1.0000 </r>
       <r>    5.0082    1.0000 </r>
       <r>    5.2789    1.0000 </r>
       <r>    5.4958    1.0000 </r>
       <r>    6.1755    1.0000 </r>
       <r>    6.3312    1.0000 </r>
       <r>    9.0547    0.0000 </r>
       <r>    9.1047    0.0000 </r>
       <r>    9.4573    0.0000 </r>
       <r>    9.7520    0.0000 </r>
       <r>   10.4085    0.0000 </r>
       <r>   10.6012    0.0000 </r>
       <r>   11.1666    0.0000 </r>
       <r>   11.3344    0.0000 </r>
      </set>
      <set comment="kpoint 26">
       <r>  -28.4162    1.0000 </r>
       <r>  -28.4162    1.0000 </r>
       <r>  -28.1711    1.0000 </r>
       <r>  -28.1711    1.0000 </r>
       <r>  -28.1416    1.0000 </r>
       <r>  -28.1416    1.0000 </r>
       <r>   -5.4993    1.0000 </r>
       <r>   -5.3955    1.0000 </r>
       <r>   -5.3475    1.0000 </r>
       <r>   -5.2541    1.0000 </r>
       <r>    0.8586    1.0000 </r>
       <r>    1.1607    1.0000 </r>
       <r>    1.7089    1.0000 </r>
       <r>    1.8340    1.0000 </r>
       <r>    2.3409    1.0000 </r>
       <r>    2.9834    1.0000 </r>
       <r>    3.4783    1.0000 </r>
       <r>    3.5934    1.0000 </r>
       <r>    4.6795    1.0000 </r>
       <r>    5.0323    1.0000 </r>
       <r>    5.1087    1.0000 </r>
       <r>    5.3390    1.0000 </r>
       <r>    6.2103    1.0000 </r>
       <r>    6.3733    1.0000 </r>
       <r>    9.0359    0.0000 </r>
       <r>    9.1206    0.0000 </r>
       <r>    9.4756    0.0000 </r>
       <r>    9.7739    0.0000 </r>
       <r>   10.4602    0.0000 </r>
       <r>   10.4707    0.0000 </r>
       <r>   11.0939    0.0000 </r>
       <r>   11.3875    0.0000 </r>
      </set>
      <set comment="kpoint 27">
       <r>  -28.4122    1.0000 </r>
       <r>  -28.4122    1.0000 </r>
       <r>  -28.1705    1.0000 </r>
       <r>  -28.1705    1.0000 </r>
       <r>  -28.1494    1.0000 </r>
       <r>  -28.1494    1.0000 </r>
       <r>   -5.4818    1.0000 </r>
       <r>   -5.3809    1.0000 </r>
       <r>   -5.3363    1.0000 </r>
       <r>   -5.2453    1.0000 </r>
       <r>    0.9090    1.0000 </r>
       <r>    1.2065    1.0000 </r>
       <r>    1.6939    1.0000 </r>
       <r>    1.7819    1.0000 </r>
       <r>    2.3634    1.0000 </r>
       <r>    2.9951    1.0000 </r>
       <r>    3.4372    1.0000 </r>
       <r>    3.6163    1.0000 </r>
       <r>    4.6731    1.0000 </r>
       <r>    4.9251    1.0000 </r>
       <r>    5.0542    1.0000 </r>
       <r>    5.1701    1.0000 </r>
       <r>    6.2404    1.0000 </r>
       <r>    6.4104    1.0000 </r>
       <r>    9.0126    0.0000 </r>
       <r>    9.1227    0.0000 </r>
       <r>    9.5102    0.0000 </r>
       <r>    9.7995    0.0000 </r>
       <r>   10.3321    0.0000 </r>
       <r>   10.5180    0.0000 </r>
       <r>   11.0194    0.0000 </r>
       <r>   11.4472    0.0000 </r>
      </set>
      <set comment="kpoint 28">
       <r>  -28.4076    1.0000 </r>
       <r>  -28.4076    1.0000 </r>
       <r>  -28.1699    1.0000 </r>
       <r>  -28.1698    1.0000 </r>
       <r>  -28.1583    1.0000 </r>
       <r>  -28.1583    1.0000 </r>
       <r>   -5.4619    1.0000 </r>
       <r>   -5.3645    1.0000 </r>
       <r>   -5.3236    1.0000 </r>
       <r>   -5.2355    1.0000 </r>
       <r>    0.9680    1.0000 </r>
       <r>    1.2596    1.0000 </r>
       <r>    1.6747    1.0000 </r>
       <r>    1.7245    1.0000 </r>
       <r>    2.3894    1.0000 </r>
       <r>    3.0073    1.0000 </r>
       <r>    3.3998    1.0000 </r>
       <r>    3.6416    1.0000 </r>
       <r>    4.6647    1.0000 </r>
       <r>    4.7315    1.0000 </r>
       <r>    4.9916    1.0000 </r>
       <r>    5.0715    1.0000 </r>
       <r>    6.2679    1.0000 </r>
       <r>    6.4438    1.0000 </r>
       <r>    8.9845    0.0000 </r>
       <r>    9.1075    0.0000 </r>
       <r>    9.5628    0.0000 </r>
       <r>    9.8286    0.0000 </r>
       <r>   10.1915    0.0000 </r>
       <r>   10.5751    0.0000 </r>
       <r>   10.9525    0.0000 </r>
       <r>   11.5110    0.0000 </r>
      </set>
      <set comment="kpoint 29">
       <r>  -28.4023    1.0000 </r>
       <r>  -28.4023    1.0000 </r>
       <r>  -28.1691    1.0000 </r>
       <r>  -28.1691    1.0000 </r>
       <r>  -28.1683    1.0000 </r>
       <r>  -28.1683    1.0000 </r>
       <r>   -5.4399    1.0000 </r>
       <r>   -5.3467    1.0000 </r>
       <r>   -5.3095    1.0000 </r>
       <r>   -5.2249    1.0000 </r>
       <r>    1.0352    1.0000 </r>
       <r>    1.3192    1.0000 </r>
       <r>    1.6513    1.0000 </r>
       <r>    1.6637    1.0000 </r>
       <r>    2.4188    1.0000 </r>
       <r>    3.0192    1.0000 </r>
       <r>    3.3689    1.0000 </r>
       <r>    3.6684    1.0000 </r>
       <r>    4.5311    1.0000 </r>
       <r>    4.6544    1.0000 </r>
       <r>    4.8058    1.0000 </r>
       <r>    5.0823    1.0000 </r>
       <r>    6.2949    1.0000 </r>
       <r>    6.4753    1.0000 </r>
       <r>    8.9513    0.0000 </r>
       <r>    9.0759    0.0000 </r>
       <r>    9.6306    0.0000 </r>
       <r>    9.8608    0.0000 </r>
       <r>   10.0534    0.0000 </r>
       <r>   10.6158    0.0000 </r>
       <r>   10.9110    0.0000 </r>
       <r>   11.5757    0.0000 </r>
      </set>
      <set comment="kpoint 30">
       <r>  -28.3964    1.0000 </r>
       <r>  -28.3964    1.0000 </r>
       <r>  -28.1791    1.0000 </r>
       <r>  -28.1791    1.0000 </r>
       <r>  -28.1683    1.0000 </r>
       <r>  -28.1683    1.0000 </r>
       <r>   -5.4162    1.0000 </r>
       <r>   -5.3277    1.0000 </r>
       <r>   -5.2943    1.0000 </r>
       <r>   -5.2138    1.0000 </r>
       <r>    1.1104    1.0000 </r>
       <r>    1.3848    1.0000 </r>
       <r>    1.6010    1.0000 </r>
       <r>    1.6237    1.0000 </r>
       <r>    2.4511    1.0000 </r>
       <r>    3.0299    1.0000 </r>
       <r>    3.3465    1.0000 </r>
       <r>    3.6957    1.0000 </r>
       <r>    4.3269    1.0000 </r>
       <r>    4.6152    1.0000 </r>
       <r>    4.6423    1.0000 </r>
       <r>    5.0854    1.0000 </r>
       <r>    6.3231    1.0000 </r>
       <r>    6.5064    1.0000 </r>
       <r>    8.9128    0.0000 </r>
       <r>    9.0311    0.0000 </r>
       <r>    9.7092    0.0000 </r>
       <r>    9.8960    0.0000 </r>
       <r>    9.9217    0.0000 </r>
       <r>   10.6166    0.0000 </r>
       <r>   10.9193    0.0000 </r>
       <r>   11.6383    0.0000 </r>
      </set>
      <set comment="kpoint 31">
       <r>  -28.3900    1.0000 </r>
       <r>  -28.3900    1.0000 </r>
       <r>  -28.1907    1.0000 </r>
       <r>  -28.1907    1.0000 </r>
       <r>  -28.1675    1.0000 </r>
       <r>  -28.1675    1.0000 </r>
       <r>   -5.3913    1.0000 </r>
       <r>   -5.3082    1.0000 </r>
       <r>   -5.2784    1.0000 </r>
       <r>   -5.2025    1.0000 </r>
       <r>    1.1930    1.0000 </r>
       <r>    1.4554    1.0000 </r>
       <r>    1.5382    1.0000 </r>
       <r>    1.5925    1.0000 </r>
       <r>    2.4861    1.0000 </r>
       <r>    3.0381    1.0000 </r>
       <r>    3.3341    1.0000 </r>
       <r>    3.7221    1.0000 </r>
       <r>    4.1224    1.0000 </r>
       <r>    4.4224    1.0000 </r>
       <r>    4.6292    1.0000 </r>
       <r>    5.0799    1.0000 </r>
       <r>    6.3540    1.0000 </r>
       <r>    6.5384    1.0000 </r>
       <r>    8.8690    0.0000 </r>
       <r>    8.9759    0.0000 </r>
       <r>    9.7945    0.0000 </r>
       <r>    9.7990    0.0000 </r>
       <r>    9.9341    0.0000 </r>
       <r>   10.5802    0.0000 </r>
       <r>   10.9755    0.0000 </r>
       <r>   11.6960    0.0000 </r>
      </set>
      <set comment="kpoint 32">
       <r>  -28.3831    1.0000 </r>
       <r>  -28.3831    1.0000 </r>
       <r>  -28.2028    1.0000 </r>
       <r>  -28.2028    1.0000 </r>
       <r>  -28.1667    1.0000 </r>
       <r>  -28.1667    1.0000 </r>
       <r>   -5.3656    1.0000 </r>
       <r>   -5.2886    1.0000 </r>
       <r>   -5.2620    1.0000 </r>
       <r>   -5.1914    1.0000 </r>
       <r>    1.2827    1.0000 </r>
       <r>    1.4768    1.0000 </r>
       <r>    1.5301    1.0000 </r>
       <r>    1.5586    1.0000 </r>
       <r>    2.5234    1.0000 </r>
       <r>    3.0417    1.0000 </r>
       <r>    3.3323    1.0000 </r>
       <r>    3.7461    1.0000 </r>
       <r>    3.9213    1.0000 </r>
       <r>    4.2300    1.0000 </r>
       <r>    4.6160    1.0000 </r>
       <r>    5.0655    1.0000 </r>
       <r>    6.3885    1.0000 </r>
       <r>    6.5722    1.0000 </r>
       <r>    8.8205    0.0000 </r>
       <r>    8.9133    0.0000 </r>
       <r>    9.6875    0.0000 </r>
       <r>    9.8829    0.0000 </r>
       <r>    9.9749    0.0000 </r>
       <r>   10.5300    0.0000 </r>
       <r>   11.0557    0.0000 </r>
       <r>   11.7457    0.0000 </r>
      </set>
      <set comment="kpoint 33">
       <r>  -28.3756    1.0000 </r>
       <r>  -28.3756    1.0000 </r>
       <r>  -28.2152    1.0000 </r>
       <r>  -28.2152    1.0000 </r>
       <r>  -28.1659    1.0000 </r>
       <r>  -28.1659    1.0000 </r>
       <r>   -5.3397    1.0000 </r>
       <r>   -5.2696    1.0000 </r>
       <r>   -5.2455    1.0000 </r>
       <r>   -5.1810    1.0000 </r>
       <r>    1.3788    1.0000 </r>
       <r>    1.4182    1.0000 </r>
       <r>    1.5231    1.0000 </r>
       <r>    1.6078    1.0000 </r>
       <r>    2.5626    1.0000 </r>
       <r>    3.0375    1.0000 </r>
       <r>    3.3411    1.0000 </r>
       <r>    3.7288    1.0000 </r>
       <r>    3.7657    1.0000 </r>
       <r>    4.0407    1.0000 </r>
       <r>    4.6045    1.0000 </r>
       <r>    5.0425    1.0000 </r>
       <r>    6.4268    1.0000 </r>
       <r>    6.6083    1.0000 </r>
       <r>    8.7680    0.0000 </r>
       <r>    8.8457    0.0000 </r>
       <r>    9.5888    0.0000 </r>
       <r>    9.9711    0.0000 </r>
       <r>   10.0178    0.0000 </r>
       <r>   10.4797    0.0000 </r>
       <r>   11.1454    0.0000 </r>
       <r>   11.7851    0.0000 </r>
      </set>
      <set comment="kpoint 34">
       <r>  -28.3678    1.0000 </r>
       <r>  -28.3678    1.0000 </r>
       <r>  -28.2278    1.0000 </r>
       <r>  -28.2278    1.0000 </r>
       <r>  -28.1652    1.0000 </r>
       <r>  -28.1652    1.0000 </r>
       <r>   -5.3142    1.0000 </r>
       <r>   -5.2517    1.0000 </r>
       <r>   -5.2292    1.0000 </r>
       <r>   -5.1715    1.0000 </r>
       <r>    1.3640    1.0000 </r>
       <r>    1.4806    1.0000 </r>
[...]
        <r>  0.0237  0.0000  0.0704  0.0000  0.0000  0.0000  0.0000  0.0000  0.0000 </r>
        <r>  0.0058  0.0000  0.0172  0.0000  0.0000  0.0000  0.0000  0.0000  0.0000 </r>
        <r>  0.0237  0.0000  0.0704  0.0000  0.0000  0.0000  0.0000  0.0000  0.0000 </r>
       </set>
      </set>
      <set comment="kpoint 180">
       <set comment="band 1">
        <r>  0.0000  0.4920  0.0000  0.4918  0.0003  0.0000  0.0000  0.0000  0.0003 </r>
        <r>  0.0000  0.0000  0.0000  0.0000  0.0000  0.0000  0.0000  0.0000  0.0000 </r>
        <r>  0.0013  0.0000  0.0007  0.0000  0.0000  0.0000  0.0000  0.0000  0.0000 </r>
        <r>  0.0000  0.0000  0.0000  0.0000  0.0000  0.0000  0.0000  0.0000  0.0000 </r>
        <r>  0.0013  0.0000  0.0007  0.0000  0.0000  0.0000  0.0000  0.0000  0.0000 </r>
        <r>  0.0000  0.0000  0.0000  0.0000  0.0000  0.0000  0.0000  0.0000  0.0000 </r>
       </set>
       <set comment="band 2">
        <r>  0.0000  0.0000  0.0000  0.0000  0.0000  0.0000  0.0000  0.0000  0.0000 </r>
        <r>  0.0000  0.4920  0.0000  0.4918  0.0003  0.0000  0.0000  0.0000  0.0003 </r>
        <r>  0.0000  0.0000  0.0000  0.0000  0.0000  0.0000  0.0000  0.0000  0.0000 </r>
        <r>  0.0013  0.0000  0.0007  0.0000  0.0000  0.0000  0.0000  0.0000  0.0000 </r>
        <r>  0.0000  0.0000  0.0000  0.0000  0.0000  0.0000  0.0000  0.0000  0.0000 </r>
        <r>  0.0013  0.0000  0.0007  0.0000  0.0000  0.0000  0.0000  0.0000  0.0000 </r>
       </set>
       <set comment="band 3">
        <r>  0.0000  0.4937  0.0000  0.4939  0.0000  0.0000  0.0000  0.0000  0.0000 </r>
        <r>  0.0000  0.0000  0.0000  0.0000  0.0000  0.0000  0.0000  0.0000  0.0000 </r>
        <r>  0.0000  0.0002  0.0000  0.0002  0.0000  0.0000  0.0000  0.0000  0.0000 </r>
        <r>  0.0000  0.0000  0.0000  0.0000  0.0000  0.0000  0.0000  0.0000  0.0000 </r>
        <r>  0.0000  0.0002  0.0000  0.0002  0.0000  0.0000  0.0000  0.0000  0.0000 </r>
        <r>  0.0000  0.0000  0.0000  0.0000  0.0000  0.0000  0.0000  0.0000  0.0000 </r>
       </set>
       <set comment="band 4">
        <r>  0.0000  0.0000  0.0000  0.0000  0.0000  0.0000  0.0000  0.0000  0.0000 </r>
        <r>  0.0000  0.4937  0.0000  0.4939  0.0000  0.0000  0.0000  0.0000  0.0000 </r>
        <r>  0.0000  0.0000  0.0000  0.0000  0.0000  0.0000  0.0000  0.0000  0.0000 </r>
        <r>  0.0000  0.0002  0.0000  0.0002  0.0000  0.0000  0.0000  0.0000  0.0000 </r>
        <r>  0.0000  0.0000  0.0000  0.0000  0.0000  0.0000  0.0000  0.0000  0.0000 </r>
        <r>  0.0000  0.0002  0.0000  0.0002  0.0000  0.0000  0.0000  0.0000  0.0000 </r>
       </set>
       <set comment="band 5">
        <r>  0.0000  0.0000  0.0000  0.0000  0.0000  0.0000  0.0000  0.0000  0.0000 </r>
        <r>  0.0000  0.0000  0.9904  0.0000  0.0000  0.0000  0.0000  0.0000  0.0000 </r>
        <r>  0.0000  0.0000  0.0000  0.0000  0.0000  0.0000  0.0000  0.0000  0.0000 </r>
        <r>  0.0000  0.0003  0.0000  0.0003  0.0000  0.0000  0.0000  0.0000  0.0000 </r>
        <r>  0.0000  0.0000  0.0000  0.0000  0.0000  0.0000  0.0000  0.0000  0.0000 </r>
        <r>  0.0000  0.0003  0.0000  0.0003  0.0000  0.0000  0.0000  0.0000  0.0000 </r>
       </set>
       <set comment="band 6">
        <r>  0.0000  0.0000  0.9904  0.0000  0.0000  0.0000  0.0000  0.0000  0.0000 </r>
        <r>  0.0000  0.0000  0.0000  0.0000  0.0000  0.0000  0.0000  0.0000  0.0000 </r>
        <r>  0.0000  0.0003  0.0000  0.0003  0.0000  0.0000  0.0000  0.0000  0.0000 </r>
        <r>  0.0000  0.0000  0.0000  0.0000  0.0000  0.0000  0.0000  0.0000  0.0000 </r>
        <r>  0.0000  0.0003  0.0000  0.0003  0.0000  0.0000  0.0000  0.0000  0.0000 </r>
        <r>  0.0000  0.0000  0.0000  0.0000  0.0000  0.0000  0.0000  0.0000  0.0000 </r>
       </set>
       <set comment="band 7">
        <r>  0.0000  0.0000  0.0000  0.0000  0.0000  0.0000  0.0000  0.0000  0.0000 </r>
        <r>  0.0000  0.0307  0.0000  0.0307  0.0270  0.0000  0.0000  0.0000  0.0270 </r>
        <r>  0.0000  0.0000  0.0000  0.0000  0.0000  0.0000  0.0000  0.0000  0.0000 </r>
        <r>  0.3270  0.0000  0.0057  0.0000  0.0000  0.0000  0.0000  0.0000  0.0000 </r>
        <r>  0.0000  0.0000  0.0000  0.0000  0.0000  0.0000  0.0000  0.0000  0.0000 </r>
        <r>  0.3270  0.0000  0.0057  0.0000  0.0000  0.0000  0.0000  0.0000  0.0000 </r>
       </set>
       <set comment="band 8">
        <r>  0.0000  0.0307  0.0000  0.0307  0.0270  0.0000  0.0000  0.0000  0.0270 </r>
        <r>  0.0000  0.0000  0.0000  0.0000  0.0000  0.0000  0.0000  0.0000  0.0000 </r>
        <r>  0.3270  0.0000  0.0057  0.0000  0.0000  0.0000  0.0000  0.0000  0.0000 </r>
        <r>  0.0000  0.0000  0.0000  0.0000  0.0000  0.0000  0.0000  0.0000  0.0000 </r>
        <r>  0.3270  0.0000  0.0057  0.0000  0.0000  0.0000  0.0000  0.0000  0.0000 </r>
        <r>  0.0000  0.0000  0.0000  0.0000  0.0000  0.0000  0.0000  0.0000  0.0000 </r>
       </set>
       <set comment="band 9">
        <r>  0.0000  0.0000  0.0000  0.0000  0.0000  0.0000  0.0000  0.0000  0.0000 </r>
        <r>  0.0000  0.0000  0.0000  0.0000  0.0000  0.0601  0.0000  0.0601  0.0000 </r>
        <r>  0.0000  0.0000  0.0000  0.0000  0.0000  0.0000  0.0000  0.0000  0.0000 </r>
        <r>  0.3360  0.0000  0.0033  0.0000  0.0000  0.0000  0.0000  0.0000  0.0000 </r>
        <r>  0.0000  0.0000  0.0000  0.0000  0.0000  0.0000  0.0000  0.0000  0.0000 </r>
        <r>  0.3360  0.0000  0.0033  0.0000  0.0000  0.0000  0.0000  0.0000  0.0000 </r>
       </set>
       <set comment="band 10">
        <r>  0.0000  0.0000  0.0000  0.0000  0.0000  0.0601  0.0000  0.0601  0.0000 </r>
        <r>  0.0000  0.0000  0.0000  0.0000  0.0000  0.0000  0.0000  0.0000  0.0000 </r>
        <r>  0.3360  0.0000  0.0033  0.0000  0.0000  0.0000  0.0000  0.0000  0.0000 </r>
        <r>  0.0000  0.0000  0.0000  0.0000  0.0000  0.0000  0.0000  0.0000  0.0000 </r>
        <r>  0.3360  0.0000  0.0033  0.0000  0.0000  0.0000  0.0000  0.0000  0.0000 </r>
        <r>  0.0000  0.0000  0.0000  0.0000  0.0000  0.0000  0.0000  0.0000  0.0000 </r>
       </set>
       <set comment="band 11">
        <r>  0.0000  0.0002  0.0000  0.0002  0.0001  0.0000  0.0000  0.0000  0.0001 </r>
        <r>  0.0000  0.0000  0.0000  0.0000  0.0000  0.1823  0.0000  0.1823  0.0000 </r>
        <r>  0.0000  0.0005  0.0000  0.0005  0.0000  0.0000  0.0000  0.0000  0.0000 </r>
        <r>  0.0000  0.0768  0.0000  0.0768  0.0000  0.0000  0.0000  0.0000  0.0000 </r>
        <r>  0.0000  0.0005  0.0000  0.0005  0.0000  0.0000  0.0000  0.0000  0.0000 </r>
        <r>  0.0000  0.0768  0.0000  0.0768  0.0000  0.0000  0.0000  0.0000  0.0000 </r>
       </set>
       <set comment="band 12">
        <r>  0.0000  0.0000  0.0000  0.0000  0.0000  0.1823  0.0000  0.1823  0.0000 </r>
        <r>  0.0000  0.0002  0.0000  0.0002  0.0001  0.0000  0.0000  0.0000  0.0001 </r>
        <r>  0.0000  0.0768  0.0000  0.0768  0.0000  0.0000  0.0000  0.0000  0.0000 </r>
        <r>  0.0000  0.0005  0.0000  0.0005  0.0000  0.0000  0.0000  0.0000  0.0000 </r>
        <r>  0.0000  0.0768  0.0000  0.0768  0.0000  0.0000  0.0000  0.0000  0.0000 </r>
        <r>  0.0000  0.0005  0.0000  0.0005  0.0000  0.0000  0.0000  0.0000  0.0000 </r>
       </set>
       <set comment="band 13">
        <r>  0.0000  0.0000  0.0000  0.0000  0.0000  0.0020  0.0000  0.0020  0.0000 </r>
        <r>  0.1462  0.0000  0.0000  0.0000  0.0000  0.0000  0.1254  0.0000  0.0000 </r>
        <r>  0.0000  0.0000  0.0037  0.0000  0.0000  0.0000  0.0000  0.0000  0.0000 </r>
        <r>  0.0000  0.0882  0.0000  0.0882  0.0000  0.0000  0.0000  0.0000  0.0000 </r>
        <r>  0.0000  0.0000  0.0037  0.0000  0.0000  0.0000  0.0000  0.0000  0.0000 </r>
        <r>  0.0000  0.0882  0.0000  0.0882  0.0000  0.0000  0.0000  0.0000  0.0000 </r>
       </set>
       <set comment="band 14">
        <r>  0.1462  0.0000  0.0000  0.0000  0.0000  0.0000  0.1254  0.0000  0.0000 </r>
        <r>  0.0000  0.0000  0.0000  0.0000  0.0000  0.0020  0.0000  0.0020  0.0000 </r>
        <r>  0.0000  0.0882  0.0000  0.0882  0.0000  0.0000  0.0000  0.0000  0.0000 </r>
        <r>  0.0000  0.0000  0.0037  0.0000  0.0000  0.0000  0.0000  0.0000  0.0000 </r>
        <r>  0.0000  0.0882  0.0000  0.0882  0.0000  0.0000  0.0000  0.0000  0.0000 </r>
        <r>  0.0000  0.0000  0.0037  0.0000  0.0000  0.0000  0.0000  0.0000  0.0000 </r>
       </set>
       <set comment="band 15">
        <r>  0.0000  0.0000  0.0000  0.0000  0.0000  0.0020  0.0000  0.0020  0.0000 </r>
        <r>  0.0000  0.0609  0.0000  0.0609  0.0357  0.0000  0.0000  0.0000  0.0358 </r>
        <r>  0.0000  0.0004  0.0000  0.0004  0.0000  0.0000  0.0000  0.0000  0.0000 </r>
        <r>  0.0000  0.0832  0.0000  0.0832  0.0000  0.0000  0.0000  0.0000  0.0000 </r>
        <r>  0.0000  0.0004  0.0000  0.0004  0.0000  0.0000  0.0000  0.0000  0.0000 </r>
        <r>  0.0000  0.0832  0.0000  0.0832  0.0000  0.0000  0.0000  0.0000  0.0000 </r>
       </set>
       <set comment="band 16">
        <r>  0.0000  0.0609  0.0000  0.0609  0.0358  0.0000  0.0000  0.0000  0.0358 </r>
        <r>  0.0000  0.0000  0.0000  0.0000  0.0000  0.0020  0.0000  0.0020  0.0000 </r>
        <r>  0.0000  0.0832  0.0000  0.0832  0.0000  0.0000  0.0000  0.0000  0.0000 </r>
        <r>  0.0000  0.0004  0.0000  0.0004  0.0000  0.0000  0.0000  0.0000  0.0000 </r>
        <r>  0.0000  0.0832  0.0000  0.0832  0.0000  0.0000  0.0000  0.0000  0.0000 </r>
        <r>  0.0000  0.0004  0.0000  0.0004  0.0000  0.0000  0.0000  0.0000  0.0000 </r>
       </set>
       <set comment="band 17">
        <r>  0.0000  0.0000  0.0159  0.0000  0.0000  0.0000  0.0000  0.0000  0.0000 </r>
        <r>  0.0000  0.0269  0.0000  0.0269  0.0888  0.0000  0.0000  0.0000  0.0887 </r>
        <r>  0.0000  0.0165  0.0000  0.0165  0.0000  0.0000  0.0000  0.0000  0.0000 </r>
        <r>  0.0223  0.0000  0.1498  0.0000  0.0000  0.0000  0.0000  0.0000  0.0000 </r>
        <r>  0.0000  0.0165  0.0000  0.0165  0.0000  0.0000  0.0000  0.0000  0.0000 </r>
        <r>  0.0223  0.0000  0.1498  0.0000  0.0000  0.0000  0.0000  0.0000  0.0000 </r>
       </set>
       <set comment="band 18">
        <r>  0.0000  0.0269  0.0000  0.0269  0.0887  0.0000  0.0000  0.0000  0.0887 </r>
        <r>  0.0000  0.0000  0.0159  0.0000  0.0000  0.0000  0.0000  0.0000  0.0000 </r>
        <r>  0.0223  0.0000  0.1498  0.0000  0.0000  0.0000  0.0000  0.0000  0.0000 </r>
        <r>  0.0000  0.0165  0.0000  0.0165  0.0000  0.0000  0.0000  0.0000  0.0000 </r>
        <r>  0.0223  0.0000  0.1498  0.0000  0.0000  0.0000  0.0000  0.0000  0.0000 </r>
        <r>  0.0000  0.0165  0.0000  0.0165  0.0000  0.0000  0.0000  0.0000  0.0000 </r>
       </set>
       <set comment="band 19">
        <r>  0.0000  0.0049  0.0000  0.0049  0.0225  0.0000  0.0000  0.0000  0.0225 </r>
        <r>  0.0000  0.0000  0.1085  0.0000  0.0000  0.0000  0.0000  0.0000  0.0000 </r>
        <r>  0.0083  0.0000  0.0263  0.0000  0.0000  0.0000  0.0000  0.0000  0.0000 </r>
        <r>  0.0000  0.0997  0.0000  0.0997  0.0000  0.0000  0.0000  0.0000  0.0000 </r>
        <r>  0.0083  0.0000  0.0263  0.0000  0.0000  0.0000  0.0000  0.0000  0.0000 </r>
        <r>  0.0000  0.0997  0.0000  0.0997  0.0000  0.0000  0.0000  0.0000  0.0000 </r>
       </set>
       <set comment="band 20">
        <r>  0.0000  0.0000  0.1085  0.0000  0.0000  0.0000  0.0000  0.0000  0.0000 </r>
        <r>  0.0000  0.0049  0.0000  0.0049  0.0225  0.0000  0.0000  0.0000  0.0225 </r>
        <r>  0.0000  0.0997  0.0000  0.0997  0.0000  0.0000  0.0000  0.0000  0.0000 </r>
        <r>  0.0083  0.0000  0.0263  0.0000  0.0000  0.0000  0.0000  0.0000  0.0000 </r>
        <r>  0.0000  0.0997  0.0000  0.0997  0.0000  0.0000  0.0000  0.0000  0.0000 </r>
        <r>  0.0083  0.0000  0.0263  0.0000  0.0000  0.0000  0.0000  0.0000  0.0000 </r>
       </set>
       <set comment="band 21">
        <r>  0.0060  0.0000  0.0000  0.0000  0.0000  0.0000  0.0057  0.0000  0.0000 </r>
        <r>  0.0000  0.0000  0.0000  0.0000  0.0000  0.1408  0.0000  0.1408  0.0000 </r>
        <r>  0.0000  0.0019  0.0000  0.0019  0.0000  0.0000  0.0000  0.0000  0.0000 </r>
        <r>  0.0207  0.0000  0.1998  0.0000  0.0000  0.0000  0.0000  0.0000  0.0000 </r>
        <r>  0.0000  0.0019  0.0000  0.0019  0.0000  0.0000  0.0000  0.0000  0.0000 </r>
        <r>  0.0207  0.0000  0.1998  0.0000  0.0000  0.0000  0.0000  0.0000  0.0000 </r>
       </set>
       <set comment="band 22">
        <r>  0.0000  0.0000  0.0000  0.0000  0.0000  0.1408  0.0000  0.1408  0.0000 </r>
        <r>  0.0060  0.0000  0.0000  0.0000  0.0000  0.0000  0.0057  0.0000  0.0000 </r>
        <r>  0.0207  0.0000  0.1998  0.0000  0.0000  0.0000  0.0000  0.0000  0.0000 </r>
        <r>  0.0000  0.0019  0.0000  0.0019  0.0000  0.0000  0.0000  0.0000  0.0000 </r>
        <r>  0.0207  0.0000  0.1998  0.0000  0.0000  0.0000  0.0000  0.0000  0.0000 </r>
        <r>  0.0000  0.0019  0.0000  0.0019  0.0000  0.0000  0.0000  0.0000  0.0000 </r>
       </set>
       <set comment="band 23">
        <r>  0.0000  0.0029  0.0000  0.0029  0.3434  0.0000  0.0000  0.0000  0.3434 </r>
        <r>  0.0000  0.0000  0.0000  0.0000  0.0000  0.0011  0.0000  0.0011  0.0000 </r>
        <r>  0.0000  0.0306  0.0000  0.0306  0.0000  0.0000  0.0000  0.0000  0.0000 </r>
        <r>  0.0000  0.0000  0.0000  0.0000  0.0000  0.0000  0.0000  0.0000  0.0000 </r>
        <r>  0.0000  0.0306  0.0000  0.0306  0.0000  0.0000  0.0000  0.0000  0.0000 </r>
        <r>  0.0000  0.0000  0.0000  0.0000  0.0000  0.0000  0.0000  0.0000  0.0000 </r>
       </set>
       <set comment="band 24">
        <r>  0.0000  0.0000  0.0000  0.0000  0.0000  0.0011  0.0000  0.0011  0.0000 </r>
        <r>  0.0000  0.0029  0.0000  0.0029  0.3434  0.0000  0.0000  0.0000  0.3434 </r>
        <r>  0.0000  0.0000  0.0000  0.0000  0.0000  0.0000  0.0000  0.0000  0.0000 </r>
        <r>  0.0000  0.0306  0.0000  0.0306  0.0000  0.0000  0.0000  0.0000  0.0000 </r>
        <r>  0.0000  0.0000  0.0000  0.0000  0.0000  0.0000  0.0000  0.0000  0.0000 </r>
        <r>  0.0000  0.0306  0.0000  0.0306  0.0000  0.0000  0.0000  0.0000  0.0000 </r>
       </set>
       <set comment="band 25">
        <r>  0.0000  0.0000  0.0000  0.0000  0.0000  0.0002  0.0000  0.0002  0.0000 </r>
        <r>  0.0496  0.0000  0.0000  0.0000  0.0000  0.0000  0.7564  0.0000  0.0000 </r>
        <r>  0.0001  0.0000  0.0000  0.0000  0.0000  0.0000  0.0000  0.0000  0.0000 </r>
        <r>  0.0000  0.0165  0.0000  0.0165  0.0000  0.0000  0.0000  0.0000  0.0000 </r>
        <r>  0.0001  0.0000  0.0000  0.0000  0.0000  0.0000  0.0000  0.0000  0.0000 </r>
        <r>  0.0000  0.0165  0.0000  0.0165  0.0000  0.0000  0.0000  0.0000  0.0000 </r>
       </set>
       <set comment="band 26">
        <r>  0.0496  0.0000  0.0000  0.0000  0.0000  0.0000  0.7564  0.0000  0.0000 </r>
        <r>  0.0000  0.0000  0.0000  0.0000  0.0000  0.0002  0.0000  0.0002  0.0000 </r>
        <r>  0.0000  0.0165  0.0000  0.0165  0.0000  0.0000  0.0000  0.0000  0.0000 </r>
        <r>  0.0001  0.0000  0.0000  0.0000  0.0000  0.0000  0.0000  0.0000  0.0000 </r>
        <r>  0.0000  0.0165  0.0000  0.0165  0.0000  0.0000  0.0000  0.0000  0.0000 </r>
        <r>  0.0001  0.0000  0.0000  0.0000  0.0000  0.0000  0.0000  0.0000  0.0000 </r>
       </set>
       <set comment="band 27">
        <r>  0.0000  0.0022  0.0000  0.0022  0.0037  0.0000  0.0000  0.0000  0.0037 </r>
        <r>  0.0000  0.0000  0.0000  0.0000  0.0000  0.2403  0.0000  0.2403  0.0000 </r>
        <r>  0.0000  0.0010  0.0000  0.0010  0.0000  0.0000  0.0000  0.0000  0.0000 </r>
        <r>  0.0000  0.0334  0.0000  0.0334  0.0000  0.0000  0.0000  0.0000  0.0000 </r>
        <r>  0.0000  0.0009  0.0000  0.0009  0.0000  0.0000  0.0000  0.0000  0.0000 </r>
        <r>  0.0000  0.0335  0.0000  0.0335  0.0000  0.0000  0.0000  0.0000  0.0000 </r>
       </set>
       <set comment="band 28">
        <r>  0.0000  0.0000  0.0000  0.0000  0.0000  0.2403  0.0000  0.2403  0.0000 </r>
        <r>  0.0000  0.0022  0.0000  0.0022  0.0037  0.0000  0.0000  0.0000  0.0037 </r>
        <r>  0.0000  0.0334  0.0000  0.0334  0.0000  0.0000  0.0000  0.0000  0.0000 </r>
        <r>  0.0000  0.0010  0.0000  0.0010  0.0000  0.0000  0.0000  0.0000  0.0000 </r>
        <r>  0.0000  0.0335  0.0000  0.0335  0.0000  0.0000  0.0000  0.0000  0.0000 </r>
        <r>  0.0000  0.0009  0.0000  0.0009  0.0000  0.0000  0.0000  0.0000  0.0000 </r>
       </set>
       <set comment="band 29">
        <r>  0.0000  0.0162  0.0000  0.0162  0.3199  0.0000  0.0000  0.0000  0.3199 </r>
        <r>  0.0000  0.0000  0.0026  0.0000  0.0000  0.0000  0.0000  0.0000  0.0000 </r>
        <r>  0.0048  0.0000  0.0786  0.0000  0.0000  0.0000  0.0000  0.0000  0.0000 </r>
        <r>  0.0000  0.0010  0.0000  0.0010  0.0000  0.0000  0.0000  0.0000  0.0000 </r>
        <r>  0.0048  0.0000  0.0786  0.0000  0.0000  0.0000  0.0000  0.0000  0.0000 </r>
        <r>  0.0000  0.0010  0.0000  0.0010  0.0000  0.0000  0.0000  0.0000  0.0000 </r>
       </set>
       <set comment="band 30">
        <r>  0.0000  0.0000  0.0026  0.0000  0.0000  0.0000  0.0000  0.0000  0.0000 </r>
        <r>  0.0000  0.0162  0.0000  0.0162  0.3199  0.0000  0.0000  0.0000  0.3199 </r>
        <r>  0.0000  0.0010  0.0000  0.0010  0.0000  0.0000  0.0000  0.0000  0.0000 </r>
        <r>  0.0048  0.0000  0.0786  0.0000  0.0000  0.0000  0.0000  0.0000  0.0000 </r>
        <r>  0.0000  0.0010  0.0000  0.0010  0.0000  0.0000  0.0000  0.0000  0.0000 </r>
        <r>  0.0048  0.0000  0.0786  0.0000  0.0000  0.0000  0.0000  0.0000  0.0000 </r>
       </set>
       <set comment="band 31">
        <r>  0.0074  0.0000  0.0000  0.0000  0.0000  0.0615  0.0007  0.0615  0.0000 </r>
        <r>  0.0020  0.0000  0.0000  0.0000  0.0000  0.2312  0.0002  0.2312  0.0000 </r>
        <r>  0.0062  0.0000  0.0184  0.0000  0.0000  0.0000  0.0000  0.0000  0.0000 </r>
        <r>  0.0233  0.0000  0.0691  0.0000  0.0000  0.0000  0.0000  0.0000  0.0000 </r>
        <r>  0.0062  0.0000  0.0184  0.0000  0.0000  0.0000  0.0000  0.0000  0.0000 </r>
        <r>  0.0233  0.0000  0.0691  0.0000  0.0000  0.0000  0.0000  0.0000  0.0000 </r>
       </set>
       <set comment="band 32">
        <r>  0.0020  0.0000  0.0000  0.0000  0.0000  0.2312  0.0002  0.2312  0.0000 </r>
        <r>  0.0074  0.0000  0.0000  0.0000  0.0000  0.0615  0.0007  0.0615  0.0000 </r>
        <r>  0.0233  0.0000  0.0691  0.0000  0.0000  0.0000  0.0000  0.0000  0.0000 </r>
        <r>  0.0062  0.0000  0.0184  0.0000  0.0000  0.0000  0.0000  0.0000  0.0000 </r>
        <r>  0.0233  0.0000  0.0691  0.0000  0.0000  0.0000  0.0000  0.0000  0.0000 </r>
        <r>  0.0062  0.0000  0.0184  0.0000  0.0000  0.0000  0.0000  0.0000  0.0000 </r>
       </set>
      </set>
     </set>
    </set>
   </array>
  </projected>
 </calculation>
 <structure name="finalpos" >
  <crystal>
   <varray name="basis" >
    <v>       3.16347217       0.00000000       0.00000000 </v>
    <v>      -1.58173609       2.73964659       0.00000000 </v>
    <v>       0.00000000       0.00000000      12.29995042 </v>
   </varray>
   <i name="volume">    106.60115792 </i>
   <varray name="rec_basis" >
    <v>       0.31610836       0.18250529       0.00000000 </v>
    <v>       0.00000000       0.36501058       0.00000000 </v>
    <v>       0.00000000       0.00000000       0.08130114 </v>
   </varray>
  </crystal>
  <varray name="positions" >
   <v>       0.66666700       0.33333300       0.75000000 </v>
   <v>       0.33333300       0.66666700       0.25000000 </v>
   <v>       0.33333300       0.66666700       0.87687744 </v>
   <v>       0.66666700       0.33333300       0.37687744 </v>
   <v>       0.33333300       0.66666700       0.62312256 </v>
   <v>       0.66666700       0.33333300       0.12312256 </v>
  </varray>
 </structure>
</modeling>
